  -2.400000      0.0000000E+00
  -2.380000      0.0000000E+00
  -2.360000      0.0000000E+00
  -2.340000      0.0000000E+00
  -2.320000      0.0000000E+00
  -2.300000      0.0000000E+00
  -2.280000      0.0000000E+00
  -2.260000      0.0000000E+00
  -2.240000      0.0000000E+00
  -2.220000      0.0000000E+00
  -2.200000      0.0000000E+00
  -2.180000      0.0000000E+00
  -2.160000      0.0000000E+00
  -2.140000      0.0000000E+00
  -2.120000      0.0000000E+00
  -2.100000      0.0000000E+00
  -2.080000      0.0000000E+00
  -2.060000      0.0000000E+00
  -2.040000      0.0000000E+00
  -2.020000      0.0000000E+00
  -2.000000      0.0000000E+00
  -1.980000      0.0000000E+00
  -1.960000      0.0000000E+00
  -1.940000      0.0000000E+00
  -1.920000      0.0000000E+00
  -1.900000      0.0000000E+00
  -1.880000      0.0000000E+00
  -1.860000      0.0000000E+00
  -1.840000      0.0000000E+00
  -1.820000      0.0000000E+00
  -1.800000      0.0000000E+00
  -1.780000      0.0000000E+00
  -1.760000      0.0000000E+00
  -1.740000      0.0000000E+00
  -1.720000      0.0000000E+00
  -1.700000      0.0000000E+00
  -1.680000      0.0000000E+00
  -1.660000      0.0000000E+00
  -1.640000      0.0000000E+00
  -1.620000      0.0000000E+00
  -1.600000      0.0000000E+00
  -1.580000      0.0000000E+00
  -1.560000      0.0000000E+00
  -1.540000      0.0000000E+00
  -1.520000      0.0000000E+00
  -1.500000      0.0000000E+00
  -1.480000      0.0000000E+00
  -1.460000      0.0000000E+00
  -1.440000      0.0000000E+00
  -1.420000      0.0000000E+00
  -1.400000      0.0000000E+00
  -1.380000      0.0000000E+00
  -1.360000      0.0000000E+00
  -1.340000      0.0000000E+00
  -1.320000      0.0000000E+00
  -1.300000      0.0000000E+00
  -1.280000      0.0000000E+00
  -1.260000      0.0000000E+00
  -1.240000      0.0000000E+00
  -1.220000      0.0000000E+00
  -1.200000      0.0000000E+00
  -1.180000      0.0000000E+00
  -1.160000      0.0000000E+00
  -1.140000      0.0000000E+00
  -1.120000      0.0000000E+00
  -1.100000      0.0000000E+00
  -1.080000      0.0000000E+00
  -1.060000      0.0000000E+00
  -1.040000      0.0000000E+00
  -1.020000      0.0000000E+00
  -1.000000      0.0000000E+00
 -0.9800000      0.0000000E+00
 -0.9600000      0.0000000E+00
 -0.9400000      0.0000000E+00
 -0.9200000      0.0000000E+00
 -0.9000000      0.0000000E+00
 -0.8800000      0.0000000E+00
 -0.8600000      0.0000000E+00
 -0.8400000      0.0000000E+00
 -0.8200000      0.0000000E+00
 -0.8000000      0.0000000E+00
 -0.7800000      0.0000000E+00
 -0.7600000      0.0000000E+00
 -0.7400000      0.0000000E+00
 -0.7200000      0.0000000E+00
 -0.7000000      0.0000000E+00
 -0.6800000      0.0000000E+00
 -0.6600000      0.0000000E+00
 -0.6400000      0.0000000E+00
 -0.6200000      0.0000000E+00
 -0.6000000      0.0000000E+00
 -0.5800000      0.0000000E+00
 -0.5600000      0.0000000E+00
 -0.5400000      0.0000000E+00
 -0.5200000      0.0000000E+00
 -0.5000000      0.0000000E+00
 -0.4800000      0.0000000E+00
 -0.4600000      0.0000000E+00
 -0.4400000      0.0000000E+00
 -0.4200000      0.0000000E+00
 -0.4000000      0.0000000E+00
 -0.3800000      0.0000000E+00
 -0.3600000      0.0000000E+00
 -0.3400000      0.0000000E+00
 -0.3200000      0.0000000E+00
 -0.3000000      0.0000000E+00
 -0.2800000      0.0000000E+00
 -0.2600000      0.0000000E+00
 -0.2400000      0.0000000E+00
 -0.2200000      0.0000000E+00
 -0.2000000      0.0000000E+00
 -0.1800000      0.0000000E+00
 -0.1600000      0.0000000E+00
 -0.1400000      0.0000000E+00
 -0.1200000      0.0000000E+00
 -0.1000000      0.0000000E+00
 -7.9999998E-02  0.0000000E+00
 -5.9999999E-02  0.0000000E+00
 -3.9999999E-02  0.0000000E+00
 -2.0000000E-02  0.0000000E+00
  0.0000000E+00  0.0000000E+00
  2.0000000E-02  0.0000000E+00
  3.9999999E-02  0.0000000E+00
  5.9999999E-02  0.0000000E+00
  7.9999998E-02  0.0000000E+00
  0.1000000      0.0000000E+00
  0.1200000      0.0000000E+00
  0.1400000      0.0000000E+00
  0.1600000      0.0000000E+00
  0.1800000      0.0000000E+00
  0.2000000      0.0000000E+00
  0.2200000      0.0000000E+00
  0.2400000      0.0000000E+00
  0.2600000      0.0000000E+00
  0.2800000      0.0000000E+00
  0.3000000      0.0000000E+00
  0.3200000      0.0000000E+00
  0.3400000      0.0000000E+00
  0.3600000      0.0000000E+00
  0.3800000      0.0000000E+00
  0.4000000      0.0000000E+00
  0.4200000      0.0000000E+00
  0.4400000      0.0000000E+00
  0.4600000      0.0000000E+00
  0.4800000      0.0000000E+00
  0.5000000      0.0000000E+00
  0.5200000      0.0000000E+00
  0.5400000      0.0000000E+00
  0.5600000      0.0000000E+00
  0.5800000      0.0000000E+00
  0.6000000      0.0000000E+00
  0.6200000      0.0000000E+00
  0.6400000      0.0000000E+00
  0.6600000      0.0000000E+00
  0.6800000      0.0000000E+00
  0.7000000      0.0000000E+00
  0.7200000      0.0000000E+00
  0.7400000      0.0000000E+00
  0.7600000      0.0000000E+00
  0.7800000      0.0000000E+00
  0.8000000      0.0000000E+00
  0.8200000      0.0000000E+00
  0.8400000      0.0000000E+00
  0.8600000      0.0000000E+00
  0.8800000      0.0000000E+00
  0.9000000      0.0000000E+00
  0.9200000      0.0000000E+00
  0.9400000      0.0000000E+00
  0.9600000      0.0000000E+00
  0.9800000      0.0000000E+00
   1.000000      0.0000000E+00
   1.020000      0.0000000E+00
   1.040000      0.0000000E+00
   1.060000      0.0000000E+00
   1.080000      0.0000000E+00
   1.100000      0.0000000E+00
   1.120000      0.0000000E+00
   1.140000      0.0000000E+00
   1.160000      0.0000000E+00
   1.180000      0.0000000E+00
   1.200000      0.0000000E+00
   1.220000      0.0000000E+00
   1.240000      0.0000000E+00
   1.260000      0.0000000E+00
   1.280000      0.0000000E+00
   1.300000      0.0000000E+00
   1.320000      0.0000000E+00
   1.340000      0.0000000E+00
   1.360000      0.0000000E+00
   1.380000      0.0000000E+00
   1.400000      0.0000000E+00
   1.420000      0.0000000E+00
   1.440000      0.0000000E+00
   1.460000      0.0000000E+00
   1.480000      0.0000000E+00
   1.500000      0.0000000E+00
   1.520000      0.0000000E+00
   1.540000      0.0000000E+00
   1.560000      0.0000000E+00
   1.580000      0.0000000E+00
   1.600000      0.0000000E+00
   1.620000      0.0000000E+00
   1.640000      0.0000000E+00
   1.660000      0.0000000E+00
   1.680000      0.0000000E+00
   1.700000      0.0000000E+00
   1.720000      0.0000000E+00
   1.740000      0.0000000E+00
   1.760000      0.0000000E+00
   1.780000      0.0000000E+00
   1.800000      0.0000000E+00
   1.820000      0.0000000E+00
   1.840000      0.0000000E+00
   1.860000      0.0000000E+00
   1.880000      0.0000000E+00
   1.900000      0.0000000E+00
   1.920000      0.0000000E+00
   1.940000      0.0000000E+00
   1.960000      0.0000000E+00
   1.980000      0.0000000E+00
   2.000000      0.0000000E+00
   2.020000      0.0000000E+00
   2.040000      0.0000000E+00
   2.060000      0.0000000E+00
   2.080000      0.0000000E+00
   2.100000      0.0000000E+00
   2.120000      0.0000000E+00
   2.140000      0.0000000E+00
   2.160000      0.0000000E+00
   2.180000      0.0000000E+00
   2.200000      0.0000000E+00
   2.220000      0.0000000E+00
   2.240000      0.0000000E+00
   2.260000      0.0000000E+00
   2.280000      0.0000000E+00
   2.300000      0.0000000E+00
   2.320000      0.0000000E+00
   2.340000      0.0000000E+00
   2.360000      0.0000000E+00
   2.380000      0.0000000E+00
   2.400000      0.0000000E+00
   2.420000      0.0000000E+00
   2.440000      0.0000000E+00
   2.460000      0.0000000E+00
   2.480000      0.0000000E+00
   2.500000      0.0000000E+00
   2.520000      0.0000000E+00
   2.540000      0.0000000E+00
   2.560000      0.0000000E+00
   2.580000      0.0000000E+00
   2.600000      0.0000000E+00
   2.620000      0.0000000E+00
   2.640000      0.0000000E+00
   2.660000      0.0000000E+00
   2.680000      0.0000000E+00
   2.700000      0.0000000E+00
   2.720000      0.0000000E+00
   2.740000      0.0000000E+00
   2.760000      0.0000000E+00
   2.780000      0.0000000E+00
   2.800000      0.0000000E+00
   2.820000      0.0000000E+00
   2.840000      0.0000000E+00
   2.860000      0.0000000E+00
   2.880000      0.0000000E+00
   2.900000      0.0000000E+00
   2.920000      0.0000000E+00
   2.940000      0.0000000E+00
   2.960000      0.0000000E+00
   2.980000      0.0000000E+00
   3.000000      0.0000000E+00
   3.020000      0.0000000E+00
   3.040000      0.0000000E+00
   3.060000      0.0000000E+00
   3.080000      0.0000000E+00
   3.100000      0.0000000E+00
   3.120000      0.0000000E+00
   3.140000      0.0000000E+00
   3.160000      0.0000000E+00
   3.180000      0.0000000E+00
   3.200000      0.0000000E+00
   3.220000      0.0000000E+00
   3.240000      0.0000000E+00
   3.260000      0.0000000E+00
   3.280000      0.0000000E+00
   3.300000      0.0000000E+00
   3.320000      0.0000000E+00
   3.340000      0.0000000E+00
   3.360000      0.0000000E+00
   3.380000      0.0000000E+00
   3.400000      0.0000000E+00
   3.420000      0.0000000E+00
   3.440000      0.0000000E+00
   3.460000      0.0000000E+00
   3.480000      0.0000000E+00
   3.500000      0.0000000E+00
   3.520000      0.0000000E+00
   3.540000      0.0000000E+00
   3.560000      0.0000000E+00
   3.580000      0.0000000E+00
   3.600000      0.0000000E+00
   3.620000      0.0000000E+00
   3.640000      0.0000000E+00
   3.660000      0.0000000E+00
   3.680000      0.0000000E+00
   3.700000      0.0000000E+00
   3.720000      0.0000000E+00
   3.740000      0.0000000E+00
   3.760000      0.0000000E+00
   3.780000      0.0000000E+00
   3.800000      0.0000000E+00
   3.820000      0.0000000E+00
   3.840000      0.0000000E+00
   3.860000      0.0000000E+00
   3.880000      0.0000000E+00
   3.900000      0.0000000E+00
   3.920000      0.0000000E+00
   3.940000      0.0000000E+00
   3.960000      0.0000000E+00
   3.980000      0.0000000E+00
   4.000000      0.0000000E+00
   4.020000      0.0000000E+00
   4.040000      0.0000000E+00
   4.060000      0.0000000E+00
   4.080000      0.0000000E+00
   4.100000      0.0000000E+00
   4.120000      0.0000000E+00
   4.140000      0.0000000E+00
   4.160000      0.0000000E+00
   4.180000      0.0000000E+00
   4.200000      0.0000000E+00
   4.220000      0.0000000E+00
   4.240000      0.0000000E+00
   4.260000      0.0000000E+00
   4.280000      0.0000000E+00
   4.300000      0.0000000E+00
   4.320000      0.0000000E+00
   4.340000      0.0000000E+00
   4.360000      0.0000000E+00
   4.380000      0.0000000E+00
   4.400000      0.0000000E+00
   4.420000      0.0000000E+00
   4.440000      0.0000000E+00
   4.460000      0.0000000E+00
   4.480000      0.0000000E+00
   4.500000      0.0000000E+00
   4.520000      0.0000000E+00
   4.540000      0.0000000E+00
   4.560000      0.0000000E+00
   4.580000      0.0000000E+00
   4.600000      0.0000000E+00
   4.620000      0.0000000E+00
   4.640000      0.0000000E+00
   4.660000      0.0000000E+00
   4.680000      0.0000000E+00
   4.700000      0.0000000E+00
   4.720000      0.0000000E+00
   4.740000      0.0000000E+00
   4.760000      0.0000000E+00
   4.780000      0.0000000E+00
   4.800000      0.0000000E+00
   4.820000      0.0000000E+00
   4.840000      0.0000000E+00
   4.860000      0.0000000E+00
   4.880000      0.0000000E+00
   4.900000      0.0000000E+00
   4.920000      0.0000000E+00
   4.940000      0.0000000E+00
   4.960000      0.0000000E+00
   4.980000      0.0000000E+00
   5.000000      0.0000000E+00
   5.020000      0.0000000E+00
   5.040000      0.0000000E+00
   5.060000      0.0000000E+00
   5.080000      0.0000000E+00
   5.100000      0.0000000E+00
   5.120000      0.0000000E+00
   5.140000      0.0000000E+00
   5.160000      0.0000000E+00
   5.180000      0.0000000E+00
   5.200000      0.0000000E+00
   5.220000      0.0000000E+00
   5.240000      0.0000000E+00
   5.260000      0.0000000E+00
   5.280000      0.0000000E+00
   5.300000      0.0000000E+00
   5.320000      0.0000000E+00
   5.340000      0.0000000E+00
   5.360000      0.0000000E+00
   5.380000      0.0000000E+00
   5.400000      0.0000000E+00
   5.420000      0.0000000E+00
   5.440000      0.0000000E+00
   5.460000      0.0000000E+00
   5.480000      0.0000000E+00
   5.500000      0.0000000E+00
   5.520000      0.0000000E+00
   5.540000      0.0000000E+00
   5.560000      0.0000000E+00
   5.580000      0.0000000E+00
   5.600000      0.0000000E+00
   5.620000      0.0000000E+00
   5.640000      0.0000000E+00
   5.660000      0.0000000E+00
   5.680000      0.0000000E+00
   5.700000      0.0000000E+00
   5.720000      0.0000000E+00
   5.740000      0.0000000E+00
   5.760000      0.0000000E+00
   5.780000      0.0000000E+00
   5.800000      0.0000000E+00
   5.820000      0.0000000E+00
   5.840000      0.0000000E+00
   5.860000      0.0000000E+00
   5.880000      0.0000000E+00
   5.900000      0.0000000E+00
   5.920000      0.0000000E+00
   5.940000      0.0000000E+00
   5.960000      0.0000000E+00
   5.980000      0.0000000E+00
   6.000000      0.0000000E+00
   6.020000      0.0000000E+00
   6.040000      0.0000000E+00
   6.060000      0.0000000E+00
   6.080000      0.0000000E+00
   6.100000      0.0000000E+00
   6.120000      0.0000000E+00
   6.140000      0.0000000E+00
   6.160000      0.0000000E+00
   6.180000      0.0000000E+00
   6.200000      0.0000000E+00
   6.220000      0.0000000E+00
   6.240000      0.0000000E+00
   6.260000      0.0000000E+00
   6.280000      0.0000000E+00
   6.300000      0.0000000E+00
   6.320000      0.0000000E+00
   6.340000      0.0000000E+00
   6.360000      0.0000000E+00
   6.380000      0.0000000E+00
   6.400000      0.0000000E+00
   6.420000      0.0000000E+00
   6.440000      0.0000000E+00
   6.460000      0.0000000E+00
   6.480000      0.0000000E+00
   6.500000      0.0000000E+00
   6.520000      0.0000000E+00
   6.540000      0.0000000E+00
   6.560000      0.0000000E+00
   6.580000      0.0000000E+00
   6.600000      0.0000000E+00
   6.620000      0.0000000E+00
   6.640000      0.0000000E+00
   6.660000      0.0000000E+00
   6.680000      0.0000000E+00
   6.700000      0.0000000E+00
   6.720000      0.0000000E+00
   6.740000      0.0000000E+00
   6.760000      0.0000000E+00
   6.780000      0.0000000E+00
   6.800000      0.0000000E+00
   6.820000      0.0000000E+00
   6.840000      0.0000000E+00
   6.860000      0.0000000E+00
   6.880000      0.0000000E+00
   6.900000      0.0000000E+00
   6.920000      0.0000000E+00
   6.940000      0.0000000E+00
   6.960000      0.0000000E+00
   6.980000      0.0000000E+00
   7.000000      0.0000000E+00
   7.020000      0.0000000E+00
   7.040000      0.0000000E+00
   7.060000      0.0000000E+00
   7.080000      0.0000000E+00
   7.100000      0.0000000E+00
   7.120000      0.0000000E+00
   7.140000      0.0000000E+00
   7.160000      0.0000000E+00
   7.180000      0.0000000E+00
   7.200000      0.0000000E+00
   7.220000      0.0000000E+00
   7.240000      0.0000000E+00
   7.260000      0.0000000E+00
   7.280000      0.0000000E+00
   7.300000      0.0000000E+00
   7.320000      0.0000000E+00
   7.340000      0.0000000E+00
   7.360000      0.0000000E+00
   7.380000      0.0000000E+00
   7.400000      0.0000000E+00
   7.420000      0.0000000E+00
   7.440000      0.0000000E+00
   7.460000      0.0000000E+00
   7.480000      0.0000000E+00
   7.500000      0.0000000E+00
   7.520000      0.0000000E+00
   7.540000      0.0000000E+00
   7.560000      0.0000000E+00
   7.580000      0.0000000E+00
   7.600000      0.0000000E+00
   7.620000      0.0000000E+00
   7.640000      0.0000000E+00
   7.660000      0.0000000E+00
   7.680000      0.0000000E+00
   7.700000      0.0000000E+00
   7.720000      0.0000000E+00
   7.740000      0.0000000E+00
   7.760000      0.0000000E+00
   7.780000      0.0000000E+00
   7.800000      0.0000000E+00
   7.820000      0.0000000E+00
   7.840000      0.0000000E+00
   7.860000      0.0000000E+00
   7.880000      0.0000000E+00
   7.900000      0.0000000E+00
   7.920000      0.0000000E+00
   7.940000      0.0000000E+00
   7.960000      0.0000000E+00
   7.980000      0.0000000E+00
   8.000000      0.0000000E+00
   8.020000      0.0000000E+00
   8.040000      0.0000000E+00
   8.060000      0.0000000E+00
   8.080000      0.0000000E+00
   8.100000      0.0000000E+00
   8.120000      0.0000000E+00
   8.140000      0.0000000E+00
   8.160000      0.0000000E+00
   8.180000      0.0000000E+00
   8.200000      0.0000000E+00
   8.220000      0.0000000E+00
   8.240000      0.0000000E+00
   8.260000      0.0000000E+00
   8.280000      0.0000000E+00
   8.300000      0.0000000E+00
   8.320000      0.0000000E+00
   8.340000      0.0000000E+00
   8.360000      0.0000000E+00
   8.380000      0.0000000E+00
   8.400000      0.0000000E+00
   8.420000      0.0000000E+00
   8.440000      0.0000000E+00
   8.460000      0.0000000E+00
   8.480000      0.0000000E+00
   8.500000      0.0000000E+00
   8.520000      0.0000000E+00
   8.540000      0.0000000E+00
   8.560000      0.0000000E+00
   8.580000      0.0000000E+00
   8.600000      0.0000000E+00
   8.620000      0.0000000E+00
   8.640000      0.0000000E+00
   8.660000      0.0000000E+00
   8.680000      0.0000000E+00
   8.700000      0.0000000E+00
   8.720000      0.0000000E+00
   8.740000      0.0000000E+00
   8.760000      0.0000000E+00
   8.780000      0.0000000E+00
   8.800000      0.0000000E+00
   8.820000      0.0000000E+00
   8.840000      0.0000000E+00
   8.860000      0.0000000E+00
   8.880000      0.0000000E+00
   8.900000      0.0000000E+00
   8.920000      0.0000000E+00
   8.940000      0.0000000E+00
   8.960000      0.0000000E+00
   8.980000      0.0000000E+00
   9.000000      0.0000000E+00
   9.020000      0.0000000E+00
   9.040000      0.0000000E+00
   9.060000      0.0000000E+00
   9.080000      0.0000000E+00
   9.100000      0.0000000E+00
   9.120000      0.0000000E+00
   9.140000      0.0000000E+00
   9.160000      0.0000000E+00
   9.180000      0.0000000E+00
   9.200000      0.0000000E+00
   9.220000      0.0000000E+00
   9.240000      0.0000000E+00
   9.260000      0.0000000E+00
   9.280000      0.0000000E+00
   9.300000      0.0000000E+00
   9.320000      0.0000000E+00
   9.340000      0.0000000E+00
   9.360000      0.0000000E+00
   9.380000      0.0000000E+00
   9.400000      0.0000000E+00
   9.420000      0.0000000E+00
   9.440000      0.0000000E+00
   9.460000      0.0000000E+00
   9.480000      0.0000000E+00
   9.500000      0.0000000E+00
   9.520000      0.0000000E+00
   9.540000      0.0000000E+00
   9.560000      0.0000000E+00
   9.580000      0.0000000E+00
   9.600000      0.0000000E+00
   9.620000      0.0000000E+00
   9.640000      0.0000000E+00
   9.660000      0.0000000E+00
   9.680000      0.0000000E+00
   9.700000      0.0000000E+00
   9.720000      0.0000000E+00
   9.740000      0.0000000E+00
   9.760000      0.0000000E+00
   9.780000      0.0000000E+00
   9.800000      0.0000000E+00
   9.820000      0.0000000E+00
   9.840000      0.0000000E+00
   9.860000      0.0000000E+00
   9.880000      0.0000000E+00
   9.900000      0.0000000E+00
   9.920000      0.0000000E+00
   9.940000      0.0000000E+00
   9.960000      0.0000000E+00
   9.980000      0.0000000E+00
   10.00000      0.0000000E+00
   10.02000      0.0000000E+00
   10.04000      0.0000000E+00
   10.06000      0.0000000E+00
   10.08000      0.0000000E+00
   10.10000      0.0000000E+00
   10.12000      0.0000000E+00
   10.14000      0.0000000E+00
   10.16000      0.0000000E+00
   10.18000      0.0000000E+00
   10.20000      0.0000000E+00
   10.22000      0.0000000E+00
   10.24000      0.0000000E+00
   10.26000      0.0000000E+00
   10.28000      0.0000000E+00
   10.30000      0.0000000E+00
   10.32000      0.0000000E+00
   10.34000      0.0000000E+00
   10.36000      0.0000000E+00
   10.38000      0.0000000E+00
   10.40000      0.0000000E+00
   10.42000      0.0000000E+00
   10.44000      0.0000000E+00
   10.46000      0.0000000E+00
   10.48000      0.0000000E+00
   10.50000      0.0000000E+00
   10.52000      0.0000000E+00
   10.54000      0.0000000E+00
   10.56000      0.0000000E+00
   10.58000      0.0000000E+00
   10.60000      0.0000000E+00
   10.62000      0.0000000E+00
   10.64000      0.0000000E+00
   10.66000      0.0000000E+00
   10.68000      0.0000000E+00
   10.70000      0.0000000E+00
   10.72000      0.0000000E+00
   10.74000      0.0000000E+00
   10.76000      0.0000000E+00
   10.78000      0.0000000E+00
   10.80000      0.0000000E+00
   10.82000      0.0000000E+00
   10.84000      0.0000000E+00
   10.86000      0.0000000E+00
   10.88000      0.0000000E+00
   10.90000      0.0000000E+00
   10.92000      0.0000000E+00
   10.94000      0.0000000E+00
   10.96000      0.0000000E+00
   10.98000      0.0000000E+00
   11.00000      0.0000000E+00
   11.02000      0.0000000E+00
   11.04000      0.0000000E+00
   11.06000      0.0000000E+00
   11.08000      0.0000000E+00
   11.10000      0.0000000E+00
   11.12000      0.0000000E+00
   11.14000      0.0000000E+00
   11.16000      0.0000000E+00
   11.18000      0.0000000E+00
   11.20000      0.0000000E+00
   11.22000      0.0000000E+00
   11.24000      0.0000000E+00
   11.26000      0.0000000E+00
   11.28000      0.0000000E+00
   11.30000      0.0000000E+00
   11.32000      0.0000000E+00
   11.34000      0.0000000E+00
   11.36000      0.0000000E+00
   11.38000      0.0000000E+00
   11.40000      0.0000000E+00
   11.42000      0.0000000E+00
   11.44000      0.0000000E+00
   11.46000      0.0000000E+00
   11.48000      0.0000000E+00
   11.50000      0.0000000E+00
   11.52000      0.0000000E+00
   11.54000      0.0000000E+00
   11.56000      0.0000000E+00
   11.58000      0.0000000E+00
   11.60000      0.0000000E+00
   11.62000      0.0000000E+00
   11.64000      0.0000000E+00
   11.66000      0.0000000E+00
   11.68000      0.0000000E+00
   11.70000      0.0000000E+00
   11.72000      0.0000000E+00
   11.74000      0.0000000E+00
   11.76000      0.0000000E+00
   11.78000      0.0000000E+00
   11.80000      0.0000000E+00
   11.82000      0.0000000E+00
   11.84000      0.0000000E+00
   11.86000      0.0000000E+00
   11.88000      0.0000000E+00
   11.90000      0.0000000E+00
   11.92000      0.0000000E+00
   11.94000      0.0000000E+00
   11.96000      0.0000000E+00
   11.98000      0.0000000E+00
   12.00000      0.0000000E+00
   12.02000      0.0000000E+00
   12.04000      0.0000000E+00
   12.06000      0.0000000E+00
   12.08000      0.0000000E+00
   12.10000      0.0000000E+00
   12.12000      0.0000000E+00
   12.14000      0.0000000E+00
   12.16000      0.0000000E+00
   12.18000      0.0000000E+00
   12.20000      0.0000000E+00
   12.22000      0.0000000E+00
   12.24000      0.0000000E+00
   12.26000      0.0000000E+00
   12.28000      0.0000000E+00
   12.30000      0.0000000E+00
   12.32000      0.0000000E+00
   12.34000      0.0000000E+00
   12.36000      0.0000000E+00
   12.38000      0.0000000E+00
   12.40000      0.0000000E+00
   12.42000      0.0000000E+00
   12.44000      0.0000000E+00
   12.46000      0.0000000E+00
   12.48000      1.5074500E-38
   12.50000      0.0000000E+00
   12.52000      0.0000000E+00
   12.54000      0.0000000E+00
   12.56000     -1.4354202E-38
   12.58000      0.0000000E+00
   12.60000      0.0000000E+00
   12.62000      3.5378170E-38
   12.64000      3.1166405E-38
   12.66000      0.0000000E+00
   12.68000     -3.7730819E-38
   12.70000     -6.9934956E-38
   12.72000     -4.3771144E-38
   12.74000      6.4300009E-38
   12.76000      5.6035790E-38
   12.78000      4.9863838E-38
   12.80000      4.3928806E-37
   12.82000      1.1139752E-36
   12.84000      7.0294476E-37
   12.86000     -6.9758467E-37
   12.88000     -2.3571523E-36
   12.90000     -2.1277895E-36
   12.92000      5.9880658E-37
   12.94000      3.2683155E-36
   12.96000      2.1132869E-36
   12.98000     -2.3096473E-36
   13.00000     -4.5192154E-36
   13.02000     -1.9261990E-36
   13.04000      4.9105713E-36
   13.06000      8.5829706E-36
   13.08000      1.2462151E-36
   13.10000     -1.4161849E-35
   13.12000     -2.3061259E-35
   13.14000     -1.2523073E-35
   13.16000      1.4659725E-35
   13.18000      3.8047727E-35
   13.20000      3.3444295E-35
   13.22000     -4.0123237E-36
   13.24000     -4.9672569E-35
   13.26000     -6.3961001E-35
   13.28000     -2.4257175E-35
   13.30000      4.9837276E-35
   13.32000      1.0207921E-34
   13.34000      7.8639430E-35
   13.36000     -2.4359730E-35
   13.38000     -1.4202266E-34
   13.40000     -1.7587796E-34
   13.42000     -6.8130510E-35
   13.44000      1.3513295E-34
   13.46000      2.9008365E-34
   13.48000      2.4788104E-34
   13.50000     -1.7920776E-35
   13.52000     -3.4907354E-34
   13.54000     -4.8069784E-34
   13.56000     -2.3856789E-34
   13.58000      2.8087572E-34
   13.60000      7.1096984E-34
   13.62000      6.5173764E-34
   13.64000      9.1093673E-36
   13.66000     -8.3070909E-34
   13.68000     -1.1953277E-33
   13.70000     -6.2851323E-34
   13.72000      6.4881512E-34
   13.74000      1.7333509E-33
   13.76000      1.6279537E-33
   13.78000      8.1950949E-35
   13.80000     -1.9770270E-33
   13.82000     -2.9123319E-33
   13.84000     -1.5966859E-33
   13.86000      1.4667884E-33
   13.88000      4.1213930E-33
   13.90000      3.9601560E-33
   13.92000      3.3878337E-34
   13.94000     -4.5760820E-33
   13.96000     -6.9000218E-33
   13.98000     -3.9135866E-33
   14.00000      3.2656074E-33
   14.02000      9.5929141E-33
   14.04000      9.3781814E-33
   14.06000      1.0250443E-33
   14.08000     -1.0473811E-32
   14.10000     -1.6057265E-32
   14.12000     -9.3173245E-33
   14.14000      7.2519486E-33
   14.16000      2.2009994E-32
   14.18000      2.1760321E-32
   14.20000      2.7203590E-33
   14.22000     -2.3704853E-32
   14.24000     -3.6721353E-32
   14.26000     -2.1587985E-32
   14.28000      1.6077066E-32
   14.30000      4.9777607E-32
   14.32000      4.9490340E-32
   14.34000      6.6058470E-33
   14.36000     -5.3071113E-32
   14.38000     -8.2592584E-32
   14.40000     -4.8802106E-32
   14.42000      3.5564967E-32
   14.44000      1.1101588E-31
   14.46000      1.1046881E-31
   14.48000      1.5003349E-32
   14.50000     -1.1757230E-31
   14.52000     -1.8288053E-31
   14.54000     -1.0786000E-31
   14.56000      7.8527084E-32
   14.58000      2.4441918E-31
   14.60000      2.4240172E-31
   14.62000      3.2182155E-32
   14.64000     -2.5799813E-31
   14.66000     -3.9934195E-31
   14.68000     -2.3377145E-31
   14.70000      1.7289767E-31
   14.72000      5.3192586E-31
   14.74000      5.2412463E-31
   14.76000      6.5960085E-32
   14.78000     -5.6090307E-31
   14.80000     -8.6132618E-31
   14.82000     -4.9855743E-31
   14.84000      3.7872463E-31
   14.86000      1.1454338E-30
   14.88000      1.1192647E-30
   14.90000      1.3061444E-31
   14.92000     -1.2082791E-30
   14.94000     -1.8381070E-30
   14.96000     -1.0503613E-30
   14.98000      8.2281840E-31
   15.00000      2.4427555E-30
   15.02000      2.3666173E-30
   15.04000      2.5443608E-31
   15.06000     -2.5777848E-30
   15.08000     -3.8869299E-30
   15.10000     -2.1958592E-30
   15.12000      1.7656551E-30
   15.14000      5.1610394E-30
   15.16000      4.9663940E-30
   15.18000      5.0163554E-31
   15.20000     -5.4396691E-30
   15.22000     -8.1526443E-30
   15.24000     -4.5754991E-30
   15.26000      3.7235399E-30
   15.28000      1.0799536E-29
   15.30000      1.0362301E-29
   15.32000      1.0365976E-30
   15.34000     -1.1332220E-29
   15.36000     -1.6966740E-29
   15.38000     -9.5388940E-30
   15.40000      7.6745472E-30
   15.42000      2.2360822E-29
   15.44000      2.1521208E-29
   15.46000      2.3091326E-30
   15.48000     -2.3247708E-29
   15.50000     -3.5023990E-29
   15.52000     -1.9950886E-29
   15.54000      1.5358264E-29
   15.56000      4.5738326E-29
   15.58000      4.4499234E-29
   15.60000      5.5606999E-30
   15.62000     -4.6810621E-29
   15.64000     -7.1625437E-29
   15.66000     -4.1892398E-29
   15.68000      2.9601351E-29
   15.70000      9.2203090E-29
   15.72000      9.1503171E-29
   15.74000      1.4102431E-29
   15.76000     -9.2157210E-29
   15.78000     -1.4481001E-28
   15.80000     -8.8155423E-29
   15.82000      5.4383080E-29
   15.84000      1.8264879E-28
   15.86000      1.8670517E-28
   15.88000      3.6353023E-29
   15.90000     -1.7660483E-28
   15.92000     -2.8865332E-28
   15.94000     -1.8522250E-28
   15.96000      9.3754294E-29
   15.98000      3.5430830E-28
   16.00000      3.7683222E-28
   16.02000      9.2646890E-29
   16.04000     -3.2761359E-28
   16.06000     -5.6533228E-28
   16.08000     -3.8652754E-28
   16.10000      1.4752408E-28
   16.12000      6.7020311E-28
   16.14000      7.4925449E-28
   16.16000      2.2931407E-28
   16.18000     -5.8423658E-28
   16.20000     -1.0833980E-27
   16.22000     -7.9606167E-28
   16.24000      1.9964469E-28
   16.26000      1.2302099E-27
   16.28000      1.4606298E-27
   16.30000      5.4565563E-28
   16.32000     -9.9251346E-28
   16.34000     -2.0221694E-27
   16.36000     -1.6074243E-27
   16.38000      1.9176524E-28
   16.40000      2.1785990E-27
   16.42000      2.7772291E-27
   16.44000      1.2414478E-27
   16.46000     -1.5847328E-27
   16.48000     -3.6560413E-27
   16.50000     -3.1607463E-27
   16.52000     -2.9003789E-29
   16.54000      3.6942695E-27
   16.56000      5.1189500E-27
   16.58000      2.6891858E-27
   16.60000     -2.3265482E-27
   16.62000     -6.3592970E-27
   16.64000     -6.0072386E-27
   16.66000     -7.9612970E-28
   16.68000      5.9388746E-27
   16.70000      9.0791311E-27
   16.72000      5.5194760E-27
   16.74000     -3.0146934E-27
   16.76000     -1.0550654E-26
   16.78000     -1.0941400E-26
   16.80000     -2.7348783E-27
   16.82000      8.9247624E-27
   16.84000      1.5351347E-26
   16.86000      1.0664317E-26
   16.88000     -3.1201477E-27
   16.90000     -1.6498188E-26
   16.92000     -1.8886973E-26