  -2.400000      0.0000000E+00
  -2.380000      0.0000000E+00
  -2.360000      0.0000000E+00
  -2.340000      0.0000000E+00
  -2.320000      0.0000000E+00
  -2.300000      0.0000000E+00
  -2.280000      0.0000000E+00
  -2.260000      0.0000000E+00
  -2.240000      0.0000000E+00
  -2.220000      0.0000000E+00
  -2.200000      0.0000000E+00
  -2.180000      0.0000000E+00
  -2.160000      0.0000000E+00
  -2.140000      0.0000000E+00
  -2.120000      0.0000000E+00
  -2.100000      0.0000000E+00
  -2.080000      0.0000000E+00
  -2.060000      0.0000000E+00
  -2.040000      0.0000000E+00
  -2.020000      0.0000000E+00
  -2.000000      0.0000000E+00
  -1.980000      0.0000000E+00
  -1.960000      0.0000000E+00
  -1.940000      0.0000000E+00
  -1.920000      0.0000000E+00
  -1.900000      0.0000000E+00
  -1.880000      0.0000000E+00
  -1.860000      0.0000000E+00
  -1.840000      0.0000000E+00
  -1.820000      0.0000000E+00
  -1.800000      0.0000000E+00
  -1.780000      0.0000000E+00
  -1.760000      0.0000000E+00
  -1.740000      0.0000000E+00
  -1.720000      0.0000000E+00
  -1.700000      0.0000000E+00
  -1.680000      0.0000000E+00
  -1.660000      0.0000000E+00
  -1.640000      0.0000000E+00
  -1.620000      0.0000000E+00
  -1.600000      0.0000000E+00
  -1.580000      0.0000000E+00
  -1.560000      0.0000000E+00
  -1.540000      0.0000000E+00
  -1.520000      0.0000000E+00
  -1.500000      0.0000000E+00
  -1.480000      0.0000000E+00
  -1.460000      0.0000000E+00
  -1.440000      0.0000000E+00
  -1.420000      0.0000000E+00
  -1.400000      0.0000000E+00
  -1.380000      0.0000000E+00
  -1.360000      0.0000000E+00
  -1.340000      0.0000000E+00
  -1.320000      0.0000000E+00
  -1.300000      0.0000000E+00
  -1.280000      0.0000000E+00
  -1.260000      0.0000000E+00
  -1.240000      0.0000000E+00
  -1.220000      0.0000000E+00
  -1.200000      0.0000000E+00
  -1.180000      0.0000000E+00
  -1.160000      0.0000000E+00
  -1.140000      0.0000000E+00
  -1.120000      0.0000000E+00
  -1.100000      0.0000000E+00
  -1.080000      0.0000000E+00
  -1.060000      0.0000000E+00
  -1.040000      0.0000000E+00
  -1.020000      0.0000000E+00
  -1.000000      0.0000000E+00
 -0.9800000      0.0000000E+00
 -0.9600000      0.0000000E+00
 -0.9400000      0.0000000E+00
 -0.9200000      0.0000000E+00
 -0.9000000      0.0000000E+00
 -0.8800000      0.0000000E+00
 -0.8600000      0.0000000E+00
 -0.8400000      0.0000000E+00
 -0.8200000      0.0000000E+00
 -0.8000000      0.0000000E+00
 -0.7800000      0.0000000E+00
 -0.7600000      0.0000000E+00
 -0.7400000      0.0000000E+00
 -0.7200000      0.0000000E+00
 -0.7000000      0.0000000E+00
 -0.6800000      0.0000000E+00
 -0.6600000      0.0000000E+00
 -0.6400000      0.0000000E+00
 -0.6200000      0.0000000E+00
 -0.6000000      0.0000000E+00
 -0.5800000      0.0000000E+00
 -0.5600000      0.0000000E+00
 -0.5400000      0.0000000E+00
 -0.5200000      0.0000000E+00
 -0.5000000      0.0000000E+00
 -0.4800000      0.0000000E+00
 -0.4600000      0.0000000E+00
 -0.4400000      0.0000000E+00
 -0.4200000      0.0000000E+00
 -0.4000000      0.0000000E+00
 -0.3800000      0.0000000E+00
 -0.3600000      0.0000000E+00
 -0.3400000      0.0000000E+00
 -0.3200000      0.0000000E+00
 -0.3000000      0.0000000E+00
 -0.2800000      0.0000000E+00
 -0.2600000      0.0000000E+00
 -0.2400000      0.0000000E+00
 -0.2200000      0.0000000E+00
 -0.2000000      0.0000000E+00
 -0.1800000      0.0000000E+00
 -0.1600000      0.0000000E+00
 -0.1400000      0.0000000E+00
 -0.1200000      0.0000000E+00
 -0.1000000      0.0000000E+00
 -7.9999998E-02  0.0000000E+00
 -5.9999999E-02  0.0000000E+00
 -3.9999999E-02  0.0000000E+00
 -2.0000000E-02  0.0000000E+00
  0.0000000E+00  0.0000000E+00
  2.0000000E-02  0.0000000E+00
  3.9999999E-02  0.0000000E+00
  5.9999999E-02  0.0000000E+00
  7.9999998E-02  0.0000000E+00
  0.1000000      0.0000000E+00
  0.1200000      0.0000000E+00
  0.1400000      0.0000000E+00
  0.1600000      0.0000000E+00
  0.1800000      0.0000000E+00
  0.2000000      0.0000000E+00
  0.2200000      0.0000000E+00
  0.2400000      0.0000000E+00
  0.2600000      0.0000000E+00
  0.2800000      0.0000000E+00
  0.3000000      0.0000000E+00
  0.3200000      0.0000000E+00
  0.3400000      0.0000000E+00
  0.3600000      0.0000000E+00
  0.3800000      0.0000000E+00
  0.4000000      0.0000000E+00
  0.4200000      0.0000000E+00
  0.4400000      0.0000000E+00
  0.4600000      0.0000000E+00
  0.4800000      0.0000000E+00
  0.5000000      0.0000000E+00
  0.5200000      0.0000000E+00
  0.5400000      0.0000000E+00
  0.5600000      0.0000000E+00
  0.5800000      0.0000000E+00
  0.6000000      0.0000000E+00
  0.6200000      0.0000000E+00
  0.6400000      0.0000000E+00
  0.6600000      0.0000000E+00
  0.6800000      0.0000000E+00
  0.7000000      0.0000000E+00
  0.7200000      0.0000000E+00
  0.7400000      0.0000000E+00
  0.7600000      0.0000000E+00
  0.7800000      0.0000000E+00
  0.8000000      0.0000000E+00
  0.8200000      0.0000000E+00
  0.8400000      0.0000000E+00
  0.8600000      0.0000000E+00
  0.8800000      0.0000000E+00
  0.9000000      0.0000000E+00
  0.9200000      0.0000000E+00
  0.9400000      0.0000000E+00
  0.9600000      0.0000000E+00
  0.9800000      0.0000000E+00
   1.000000      0.0000000E+00
   1.020000      0.0000000E+00
   1.040000      0.0000000E+00
   1.060000      0.0000000E+00
   1.080000      0.0000000E+00
   1.100000      0.0000000E+00
   1.120000      0.0000000E+00
   1.140000      0.0000000E+00
   1.160000      0.0000000E+00
   1.180000      0.0000000E+00
   1.200000      0.0000000E+00
   1.220000      0.0000000E+00
   1.240000      0.0000000E+00
   1.260000      0.0000000E+00
   1.280000      0.0000000E+00
   1.300000      0.0000000E+00
   1.320000      0.0000000E+00
   1.340000      0.0000000E+00
   1.360000      0.0000000E+00
   1.380000      0.0000000E+00
   1.400000      0.0000000E+00
   1.420000      0.0000000E+00
   1.440000      0.0000000E+00
   1.460000      0.0000000E+00
   1.480000      0.0000000E+00
   1.500000      0.0000000E+00
   1.520000      0.0000000E+00
   1.540000      0.0000000E+00
   1.560000      0.0000000E+00
   1.580000      0.0000000E+00
   1.600000      0.0000000E+00
   1.620000      0.0000000E+00
   1.640000      0.0000000E+00
   1.660000      0.0000000E+00
   1.680000      0.0000000E+00
   1.700000      0.0000000E+00
   1.720000      0.0000000E+00
   1.740000      0.0000000E+00
   1.760000      0.0000000E+00
   1.780000      0.0000000E+00
   1.800000      0.0000000E+00
   1.820000      0.0000000E+00
   1.840000      0.0000000E+00
   1.860000      0.0000000E+00
   1.880000      0.0000000E+00
   1.900000      0.0000000E+00
   1.920000      0.0000000E+00
   1.940000      0.0000000E+00
   1.960000      0.0000000E+00
   1.980000      0.0000000E+00
   2.000000      0.0000000E+00
   2.020000      0.0000000E+00
   2.040000      0.0000000E+00
   2.060000      0.0000000E+00
   2.080000      0.0000000E+00
   2.100000      0.0000000E+00
   2.120000      0.0000000E+00
   2.140000      0.0000000E+00
   2.160000      0.0000000E+00
   2.180000      0.0000000E+00
   2.200000      0.0000000E+00
   2.220000      0.0000000E+00
   2.240000      0.0000000E+00
   2.260000      0.0000000E+00
   2.280000      0.0000000E+00
   2.300000      0.0000000E+00
   2.320000      0.0000000E+00
   2.340000      0.0000000E+00
   2.360000      0.0000000E+00
   2.380000      0.0000000E+00
   2.400000      0.0000000E+00
   2.420000      0.0000000E+00
   2.440000      0.0000000E+00
   2.460000      0.0000000E+00
   2.480000      0.0000000E+00
   2.500000      0.0000000E+00
   2.520000      0.0000000E+00
   2.540000      0.0000000E+00
   2.560000      0.0000000E+00
   2.580000      0.0000000E+00
   2.600000      0.0000000E+00
   2.620000      0.0000000E+00
   2.640000      0.0000000E+00
   2.660000      0.0000000E+00
   2.680000      0.0000000E+00
   2.700000      0.0000000E+00
   2.720000      0.0000000E+00
   2.740000      0.0000000E+00
   2.760000      0.0000000E+00
   2.780000      0.0000000E+00
   2.800000      0.0000000E+00
   2.820000      0.0000000E+00
   2.840000      0.0000000E+00
   2.860000      0.0000000E+00
   2.880000      0.0000000E+00
   2.900000      0.0000000E+00
   2.920000      0.0000000E+00
   2.940000      0.0000000E+00
   2.960000      0.0000000E+00
   2.980000      0.0000000E+00
   3.000000      0.0000000E+00
   3.020000      0.0000000E+00
   3.040000      0.0000000E+00
   3.060000      0.0000000E+00
   3.080000      0.0000000E+00
   3.100000      0.0000000E+00
   3.120000      0.0000000E+00
   3.140000      0.0000000E+00
   3.160000      0.0000000E+00
   3.180000      0.0000000E+00
   3.200000      0.0000000E+00
   3.220000      0.0000000E+00
   3.240000      0.0000000E+00
   3.260000      0.0000000E+00
   3.280000      0.0000000E+00
   3.300000      0.0000000E+00
   3.320000      0.0000000E+00
   3.340000      0.0000000E+00
   3.360000      0.0000000E+00
   3.380000      0.0000000E+00
   3.400000      0.0000000E+00
   3.420000      0.0000000E+00
   3.440000      0.0000000E+00
   3.460000      0.0000000E+00
   3.480000      0.0000000E+00
   3.500000      0.0000000E+00
   3.520000      0.0000000E+00
   3.540000      0.0000000E+00
   3.560000      0.0000000E+00
   3.580000      0.0000000E+00
   3.600000      0.0000000E+00
   3.620000      0.0000000E+00
   3.640000      0.0000000E+00
   3.660000      0.0000000E+00
   3.680000      0.0000000E+00
   3.700000      0.0000000E+00
   3.720000      0.0000000E+00
   3.740000      0.0000000E+00
   3.760000      0.0000000E+00
   3.780000      0.0000000E+00
   3.800000      0.0000000E+00
   3.820000      0.0000000E+00
   3.840000      0.0000000E+00
   3.860000      0.0000000E+00
   3.880000      0.0000000E+00
   3.900000      0.0000000E+00
   3.920000      0.0000000E+00
   3.940000      0.0000000E+00
   3.960000      0.0000000E+00
   3.980000      0.0000000E+00
   4.000000      0.0000000E+00
   4.020000      0.0000000E+00
   4.040000      0.0000000E+00
   4.060000      0.0000000E+00
   4.080000      0.0000000E+00
   4.100000      0.0000000E+00
   4.120000      0.0000000E+00
   4.140000      0.0000000E+00
   4.160000      0.0000000E+00
   4.180000      0.0000000E+00
   4.200000      0.0000000E+00
   4.220000      0.0000000E+00
   4.240000      0.0000000E+00
   4.260000      0.0000000E+00
   4.280000      0.0000000E+00
   4.300000      0.0000000E+00
   4.320000      0.0000000E+00
   4.340000      0.0000000E+00
   4.360000      0.0000000E+00
   4.380000      0.0000000E+00
   4.400000      0.0000000E+00
   4.420000      0.0000000E+00
   4.440000      0.0000000E+00
   4.460000      0.0000000E+00
   4.480000      0.0000000E+00
   4.500000      0.0000000E+00
   4.520000      0.0000000E+00
   4.540000      0.0000000E+00
   4.560000      0.0000000E+00
   4.580000      0.0000000E+00
   4.600000      0.0000000E+00
   4.620000      0.0000000E+00
   4.640000      0.0000000E+00
   4.660000      0.0000000E+00
   4.680000      0.0000000E+00
   4.700000      0.0000000E+00
   4.720000      0.0000000E+00
   4.740000      0.0000000E+00
   4.760000      0.0000000E+00
   4.780000      0.0000000E+00
   4.800000      0.0000000E+00
   4.820000      0.0000000E+00
   4.840000      0.0000000E+00
   4.860000      0.0000000E+00
   4.880000      0.0000000E+00
   4.900000      0.0000000E+00
   4.920000      0.0000000E+00
   4.940000      0.0000000E+00
   4.960000      0.0000000E+00
   4.980000      0.0000000E+00
   5.000000      0.0000000E+00
   5.020000      0.0000000E+00
   5.040000      0.0000000E+00
   5.060000      0.0000000E+00
   5.080000      0.0000000E+00
   5.100000      0.0000000E+00
   5.120000      0.0000000E+00
   5.140000      0.0000000E+00
   5.160000      0.0000000E+00
   5.180000      0.0000000E+00
   5.200000      0.0000000E+00
   5.220000      0.0000000E+00
   5.240000      0.0000000E+00
   5.260000      0.0000000E+00
   5.280000      0.0000000E+00
   5.300000      0.0000000E+00
   5.320000      0.0000000E+00
   5.340000      0.0000000E+00
   5.360000      0.0000000E+00
   5.380000      0.0000000E+00
   5.400000      0.0000000E+00
   5.420000      0.0000000E+00
   5.440000      0.0000000E+00
   5.460000      0.0000000E+00
   5.480000      0.0000000E+00
   5.500000      0.0000000E+00
   5.520000      0.0000000E+00
   5.540000      0.0000000E+00
   5.560000      0.0000000E+00
   5.580000      0.0000000E+00
   5.600000      0.0000000E+00
   5.620000      0.0000000E+00
   5.640000      0.0000000E+00
   5.660000      0.0000000E+00
   5.680000      0.0000000E+00
   5.700000      0.0000000E+00
   5.720000      0.0000000E+00
   5.740000      0.0000000E+00
   5.760000      0.0000000E+00
   5.780000      0.0000000E+00
   5.800000      0.0000000E+00
   5.820000      0.0000000E+00
   5.840000      0.0000000E+00
   5.860000      0.0000000E+00
   5.880000      0.0000000E+00
   5.900000      0.0000000E+00
   5.920000      0.0000000E+00
   5.940000      0.0000000E+00
   5.960000      0.0000000E+00
   5.980000      0.0000000E+00
   6.000000      0.0000000E+00
   6.020000      0.0000000E+00
   6.040000      0.0000000E+00
   6.060000      0.0000000E+00
   6.080000      0.0000000E+00
   6.100000      0.0000000E+00
   6.120000      0.0000000E+00
   6.140000      0.0000000E+00
   6.160000      0.0000000E+00
   6.180000      0.0000000E+00
   6.200000      0.0000000E+00
   6.220000      0.0000000E+00
   6.240000      0.0000000E+00
   6.260000      0.0000000E+00
   6.280000      0.0000000E+00
   6.300000      0.0000000E+00
   6.320000      0.0000000E+00
   6.340000      0.0000000E+00
   6.360000      0.0000000E+00
   6.380000      0.0000000E+00
   6.400000      0.0000000E+00
   6.420000      0.0000000E+00
   6.440000      0.0000000E+00
   6.460000      0.0000000E+00
   6.480000      0.0000000E+00
   6.500000      0.0000000E+00
   6.520000      0.0000000E+00
   6.540000      0.0000000E+00
   6.560000      0.0000000E+00
   6.580000      0.0000000E+00
   6.600000      0.0000000E+00
   6.620000      0.0000000E+00
   6.640000      0.0000000E+00
   6.660000      0.0000000E+00
   6.680000      0.0000000E+00
   6.700000      0.0000000E+00
   6.720000      0.0000000E+00
   6.740000      0.0000000E+00
   6.760000      0.0000000E+00
   6.780000      0.0000000E+00
   6.800000      0.0000000E+00
   6.820000      0.0000000E+00
   6.840000      0.0000000E+00
   6.860000      0.0000000E+00
   6.880000      0.0000000E+00
   6.900000      0.0000000E+00
   6.920000      0.0000000E+00
   6.940000      0.0000000E+00
   6.960000      0.0000000E+00
   6.980000      0.0000000E+00
   7.000000      0.0000000E+00
   7.020000      0.0000000E+00
   7.040000      0.0000000E+00
   7.060000      0.0000000E+00
   7.080000      0.0000000E+00
   7.100000      0.0000000E+00
   7.120000      0.0000000E+00
   7.140000      0.0000000E+00
   7.160000      0.0000000E+00
   7.180000      0.0000000E+00
   7.200000      0.0000000E+00
   7.220000      0.0000000E+00
   7.240000      0.0000000E+00
   7.260000      0.0000000E+00
   7.280000      0.0000000E+00
   7.300000      0.0000000E+00
   7.320000      0.0000000E+00
   7.340000      0.0000000E+00
   7.360000      0.0000000E+00
   7.380000      0.0000000E+00
   7.400000      0.0000000E+00
   7.420000      0.0000000E+00
   7.440000      0.0000000E+00
   7.460000      0.0000000E+00
   7.480000      0.0000000E+00
   7.500000      0.0000000E+00
   7.520000      0.0000000E+00
   7.540000      0.0000000E+00
   7.560000      0.0000000E+00
   7.580000      0.0000000E+00
   7.600000      0.0000000E+00
   7.620000      0.0000000E+00
   7.640000      0.0000000E+00
   7.660000      0.0000000E+00
   7.680000      0.0000000E+00
   7.700000      0.0000000E+00
   7.720000      0.0000000E+00
   7.740000      0.0000000E+00
   7.760000      0.0000000E+00
   7.780000      0.0000000E+00
   7.800000      0.0000000E+00
   7.820000      0.0000000E+00
   7.840000      0.0000000E+00
   7.860000      0.0000000E+00
   7.880000      0.0000000E+00
   7.900000      0.0000000E+00
   7.920000      0.0000000E+00
   7.940000      0.0000000E+00
   7.960000      0.0000000E+00
   7.980000      0.0000000E+00
   8.000000      0.0000000E+00
   8.020000      0.0000000E+00
   8.040000      0.0000000E+00
   8.060000      0.0000000E+00
   8.080000      0.0000000E+00
   8.100000      0.0000000E+00
   8.120000     -1.4323868E-38
   8.140000     -4.3025591E-38
   8.160000     -7.5538916E-38
   8.180000     -9.0313389E-38
   8.200000     -5.3005734E-38
   8.220000     -1.4913315E-38
   8.240000     -4.1855586E-38
   8.260000     -1.6722714E-37
   8.280000     -3.1723563E-37
   8.300000     -3.3551202E-37
   8.320000     -8.3524518E-38
   8.340000     -2.3587414E-37
   8.360000     -5.4715445E-37
   8.380000     -3.8773574E-37
   8.400000      6.5640354E-37
   8.420000      2.2312705E-36
   8.440000      1.4035627E-36
   8.460000     -1.3938838E-36
   8.480000     -3.6419178E-36
   8.500000     -2.6320390E-36
   8.520000      1.1034789E-36
   8.540000      3.8092876E-36
   8.560000      9.3833923E-37
   8.580000     -2.1320136E-36
   8.600000     -9.0160135E-37
   8.620000      5.6543739E-36
   8.640000      8.9459081E-36
   8.660000     -4.5209843E-37
   8.680000     -1.9784167E-35
   8.700000     -3.0791061E-35
   8.720000     -1.3706557E-35
   8.740000      3.0235824E-35
   8.760000      6.8218374E-35
   8.780000      5.5538463E-35
   8.800000     -2.1271823E-35
   8.820000     -1.1555448E-34
   8.840000     -1.4034978E-34
   8.860000     -3.8201563E-35
   8.880000      1.4838211E-34
   8.900000      2.7325358E-34
   8.920000      1.8913315E-34
   8.940000     -1.1095157E-34
   8.960000     -4.2897765E-34
   8.980000     -4.6930974E-34
   9.000000     -8.2508132E-35
   9.020000      5.3455941E-34
   9.040000      8.9005907E-34
   9.060000      5.4842845E-34
   9.080000     -4.3683767E-34
   9.100000     -1.3871235E-33
   9.120000     -1.3998407E-33
   9.140000     -1.1119880E-34
   9.160000      1.7619819E-33
   9.180000      2.6910225E-33
   9.200000      1.4626289E-33
   9.220000     -1.5740119E-33
   9.240000     -4.2603504E-33
   9.260000     -3.9761129E-33
   9.280000      9.4615460E-35
   9.300000      5.5536385E-33
   9.320000      7.8521847E-33
   9.340000      3.7287015E-33
   9.360000     -5.3144573E-33
   9.380000     -1.2698342E-32
   9.400000     -1.1031687E-32
   9.420000      1.3642934E-33
   9.440000      1.6891151E-32
   9.460000      2.2395426E-32
   9.480000      9.3074335E-33
   9.500000     -1.6885566E-32
   9.520000     -3.6770389E-32
   9.540000     -2.9960750E-32
   9.560000      6.5701127E-33
   9.580000      4.9724816E-32
   9.600000      6.2405702E-32
   9.620000      2.2597504E-32
   9.640000     -5.1385037E-32
   9.660000     -1.0385594E-31
   9.680000     -7.9799286E-32
   9.700000      2.4828227E-32
   9.720000      1.4223254E-31
   9.740000      1.7023946E-31
   9.760000      5.3532330E-32
   9.780000     -1.5054469E-31
   9.800000     -2.8648883E-31
   9.820000     -2.0889191E-31
   9.840000      8.2714500E-32
   9.860000      3.9576233E-31
   9.880000      4.5522744E-31
   9.900000      1.2475499E-31
   9.920000     -4.2535888E-31
   9.940000     -7.7207673E-31
   9.960000     -5.3848070E-31
   9.980000      2.5270025E-31
   10.00000      1.0713818E-30
   10.02000      1.1935307E-30
   10.04000      2.8825557E-31
   10.06000     -1.1613198E-30
   10.08000     -2.0330980E-30
   10.10000     -1.3677163E-30
   10.12000      7.2385912E-31
   10.14000      2.8249947E-30
   10.16000      3.0696468E-30
   10.18000      6.6466946E-31
   10.20000     -3.0730975E-30
   10.22000     -5.2378983E-30
   10.24000     -3.4283870E-30
   10.26000      1.9675251E-30
   10.28000      7.2674605E-30
   10.30000      7.7569770E-30
   10.32000      1.5497515E-30
   10.34000     -7.8931621E-30
   10.36000     -1.3216878E-29
   10.38000     -8.5006094E-30
   10.40000      5.0941682E-30
   10.42000      1.8246421E-29
   10.44000      1.9269906E-29
   10.46000      3.6956719E-30
   10.48000     -1.9683702E-29
   10.50000     -3.2659634E-29
   10.52000     -2.0841794E-29
   10.54000      1.2619344E-29
   10.56000      4.4723334E-29
   10.58000      4.7035380E-29
   10.60000      8.9945442E-30
   10.62000     -4.7749307E-29
   10.64000     -7.9066959E-29
   10.66000     -5.0474077E-29
   10.68000      3.0078078E-29
   10.70000      1.0717633E-28
   10.72000      1.1286223E-28
   10.74000      2.2237515E-29
   10.76000     -1.1289604E-28
   10.78000     -1.8773563E-28
   10.80000     -1.2077747E-28
   10.82000      6.9073044E-29
   10.84000      2.5131205E-28
   10.86000      2.6632664E-28
   10.88000      5.5596843E-29
   10.90000     -2.6023365E-28
   10.92000     -4.3713877E-28
   10.94000     -2.8520319E-28
   10.96000      1.5292250E-28
   10.98000      5.7655881E-28
   11.00000      6.1736907E-28
   11.02000      1.3868807E-28
   11.04000     -5.8548343E-28
   11.06000     -9.9789797E-28
   11.08000     -6.6278192E-28
   11.10000      3.2785609E-28
   11.12000      1.2955246E-27
   11.14000      1.4051646E-27
   11.16000      3.4098217E-28
   11.18000     -1.2887341E-27
   11.20000     -2.2351852E-27
   11.22000     -1.5144552E-27
   11.24000      6.8260403E-28
   11.26000      2.8547203E-27
   11.28000      3.1416636E-27
   11.30000      8.2338474E-28
   11.32000     -2.7779142E-27
   11.34000     -4.9143958E-27
   11.36000     -3.4011176E-27
   11.38000      1.3802674E-27
   11.40000      6.1700686E-27
   11.42000      6.8965957E-27
   11.44000      1.9439270E-27
   11.46000     -5.8696736E-27
   11.48000     -1.0605330E-26
   11.50000     -7.4942487E-27
   11.52000      2.7237574E-27
   11.54000      1.3095673E-26
   11.56000      1.4862979E-26
   11.58000      4.4647524E-27
   11.60000     -1.2194507E-26
   11.62000     -2.2494330E-26
   11.64000     -1.6203710E-26
   11.66000      5.2779598E-27
   11.68000      2.7356593E-26
   11.70000      3.1497121E-26
   11.72000      9.9945179E-27
   11.74000     -2.4966385E-26
   11.76000     -4.6978158E-26
   11.78000     -3.4440317E-26
   11.80000      1.0057197E-26
   11.82000      5.6325729E-26
   11.84000      6.5724470E-26
   11.86000      2.1863708E-26
   11.88000     -5.0446814E-26
   11.90000     -9.6721508E-26
   11.92000     -7.2022736E-26
   11.94000      1.8941825E-26
   11.96000      1.1452220E-25
   11.98000      1.3523440E-25
   12.00000      4.6759354E-26
   12.02000     -1.0094527E-25
   12.04000     -1.9680364E-25
   12.06000     -1.4850962E-25
   12.08000      3.5506053E-26
   12.10000      2.3066981E-25
   12.12000      2.7526742E-25
   12.14000      9.8320764E-26
   12.16000     -2.0051658E-25
   12.18000     -3.9698069E-25
   12.20000     -3.0328149E-25
   12.22000      6.5896128E-26
   12.24000      4.6107697E-25
   12.26000      5.5600770E-25
   12.28000      2.0496737E-25
   12.30000     -3.9516170E-25
   12.32000     -7.9517076E-25
   12.34000     -6.1552573E-25
   12.36000      1.1976283E-25
   12.38000      9.1519777E-25
   12.40000      1.1167688E-24
   12.42000      4.2605268E-25
   12.44000     -7.7219321E-25
   12.46000     -1.5841840E-24
   12.48000     -1.2457179E-24
   12.50000      2.0949727E-25
   12.52000      1.8053317E-24
   12.54000      2.2366370E-24
   12.56000      8.9040683E-25
   12.58000     -1.4920798E-24
   12.60000     -3.1432031E-24
   12.62000     -2.5254210E-24
   12.64000      3.3478098E-25
   12.66000      3.5330954E-24
   12.68000      4.4738913E-24
   12.70000      1.8872424E-24
   12.72000     -2.8287103E-24
   12.74000     -6.2026603E-24
   12.76000     -5.1384908E-24
   12.78000      4.2807009E-25
   12.80000      6.8309801E-24
   12.82000      8.9286764E-24
   12.84000      4.0619963E-24
   12.86000     -5.2127921E-24
   12.88000     -1.2141833E-23
   12.90000     -1.0486215E-23
   12.92000      2.0168533E-25
   12.94000      1.2989657E-23
   12.96000      1.7749676E-23
   12.98000      8.8580678E-24
   13.00000     -9.2188778E-24
   13.02000     -2.3503888E-23
   13.04000     -2.1433662E-23
   13.06000     -1.2921043E-24
   13.08000      2.4128393E-23
   13.10000      3.5042435E-23
   13.12000      1.9479306E-23
   13.14000     -1.5285422E-23
   13.16000     -4.4742379E-23
   13.18000     -4.3691954E-23
   13.20000     -6.7213513E-24
   13.22000      4.3340649E-23
   13.24000      6.8328203E-23
   13.26000      4.2764768E-23
   13.28000     -2.2813567E-23
   13.30000     -8.3183540E-23
   13.32000     -8.8246436E-23
   13.34000     -2.2749480E-23
   13.36000      7.4384371E-23
   13.38000      1.3083228E-22
   13.40000      9.2811164E-23
   13.42000     -2.7757090E-23
   13.44000     -1.4993689E-22
   13.46000     -1.7555006E-22
   13.48000     -6.4946672E-23
   13.50000      1.1965984E-22
   13.52000      2.4444427E-22
   13.54000      1.9761920E-22
   13.56000     -1.6616454E-23
   13.58000     -2.5916310E-22
   13.60000     -3.4155870E-22
   13.62000     -1.6725853E-22
   13.64000      1.7381101E-22
   13.66000      4.4171934E-22
   13.68000      4.0942956E-22
   13.70000      4.5875644E-23
   13.72000     -4.2273885E-22
   13.74000     -6.4463426E-22
   13.76000     -3.9807933E-22
   13.78000      2.0905222E-22
   13.80000      7.6404614E-22
   13.82000      8.1955661E-22
   13.84000      2.4015922E-22
   13.86000     -6.3441779E-22
   13.88000     -1.1708071E-21
   13.90000     -8.8686747E-22
   13.92000      1.4296530E-22
   13.94000      1.2469079E-21
   13.96000      1.5756263E-21
   13.98000      7.3458404E-22
   14.00000     -8.2825690E-22
   14.02000     -2.0242729E-21
   14.04000     -1.8597894E-21
   14.06000     -2.2452786E-22
   14.08000      1.8706960E-21
   14.10000      2.8848265E-21
   14.12000      1.8480754E-21
   14.14000     -7.9214741E-22
   14.16000     -3.2767914E-21
   14.18000     -3.6688986E-21
   14.20000     -1.3127298E-21
   14.22000      2.4495409E-21
   14.24000      4.9748892E-21
   14.26000      4.1264777E-21
   14.28000     -1.1266419E-23
   14.30000     -4.8334603E-21
   14.32000     -6.7865500E-21
   14.34000     -3.9142877E-21
   14.36000      2.4002160E-21
   14.38000      7.9437345E-21
   14.40000      8.4029482E-21
   14.42000      2.6026004E-21
   14.44000     -6.1089336E-21
   14.46000     -1.1657283E-20
   14.48000     -9.3676783E-21
   14.50000      3.1208557E-22
   14.52000      1.1337248E-20
   14.54000      1.5694579E-20
   14.56000      9.0619429E-21
   14.58000     -5.3963757E-21
   14.60000     -1.8200293E-20
   14.62000     -1.9585034E-20
   14.64000     -6.6806010E-21
   14.66000      1.3280435E-20
   14.68000      2.6699283E-20
   14.70000      2.2614585E-20
   14.72000      1.1804119E-21
   14.74000     -2.4673313E-20
   14.76000     -3.6673334E-20
   14.78000     -2.3722889E-20
   14.80000      8.8209765E-21
   14.82000      4.0382256E-20
   14.84000      4.7690042E-20
   14.86000      2.1304046E-20
   14.88000     -2.5207735E-20
   14.90000     -6.1297037E-20
   14.92000     -5.8805659E-20
   14.94000     -1.2862772E-20
   14.96000      5.0572588E-20
   14.98000      8.8256410E-20
   15.00000      6.8102000E-20
   15.02000     -5.5011610E-21
   15.04000     -8.8390943E-20
   15.06000     -1.2165574E-19
   15.08000     -7.1896542E-20
   15.10000      3.9751560E-20
   15.12000      1.4299292E-19
   15.14000      1.6058873E-19
   15.16000      6.3537559E-20
   15.18000     -9.8590992E-20
   15.20000     -2.1904552E-19
   15.22000     -2.0126526E-19
   15.24000     -3.1761412E-20
   15.26000      1.9387962E-19
   15.28000      3.2013518E-19
   15.30000      2.3445263E-19
   15.32000     -4.1261530E-20
   15.34000     -3.4032844E-19
   15.36000     -4.4595209E-19
   15.38000     -2.4180425E-19
   15.40000      1.8179190E-19
   15.42000      5.5375487E-19
   15.44000      5.8756908E-19
   15.46000      1.9122690E-19
   15.48000     -4.2547100E-19
   15.50000     -8.4691637E-19
   15.52000     -7.2042344E-19
   15.54000     -3.1921540E-20
   15.56000      8.1597666E-19
   15.58000      1.2217168E-18
   15.60000      7.9491959E-19
   15.62000     -3.0959920E-19
   15.64000     -1.3994475E-18
   15.66000     -1.6565649E-18
   15.68000     -7.2516639E-19
   15.70000      9.3042289E-19
   15.72000      2.2123740E-18
   15.74000      2.0880967E-18
   15.76000      3.7737006E-19
   15.78000     -1.9461252E-18
   15.80000     -3.2607036E-18
   15.82000     -2.3876130E-18
   15.84000      4.3903076E-19
   15.86000      3.4758411E-18
   15.88000      4.4885839E-18
   15.90000      2.3345504E-18
   15.92000     -1.9723398E-18
   15.94000     -5.6129838E-18
   15.96000     -5.7364148E-18
   15.98000     -1.5918908E-18
   16.00000      4.5143026E-18
   16.02000      8.3767927E-18
   16.04000      6.6898211E-18
   16.06000     -3.0879283E-19
   16.08000     -8.3615585E-18
   16.10000     -1.1640711E-17
   16.12000     -6.8238186E-18
   16.14000      3.9625496E-18
   16.16000      1.3743892E-17
   16.18000      1.5036600E-17
   16.20000      5.3505636E-18
   16.22000     -1.0054367E-17
   16.24000     -2.0712528E-17
   16.26000     -1.7839559E-17
   16.28000     -1.1848979E-18
   16.30000      1.9276726E-17
   16.32000      2.8986172E-17
   16.34000      1.8846801E-17
   16.36000     -7.0500562E-18
   16.38000     -3.2185161E-17
   16.40000     -3.7757413E-17
   16.42000     -1.6273404E-17
   16.44000      2.0947267E-17
   16.46000      4.8974373E-17
   16.48000      4.5467802E-17
   16.50000      7.6956095E-18
   16.52000     -4.2135905E-17
   16.54000     -6.9159764E-17
   16.56000     -4.9566429E-17
   16.58000      9.9229802E-18
   16.60000      7.1966288E-17
   16.62000      9.1160915E-17
   16.64000      4.6279677E-17
   16.66000     -4.0083842E-17
   16.68000     -1.1104120E-16
   16.70000     -1.1180783E-16
   16.72000     -3.0442953E-17
   16.74000      8.6438587E-17
   16.76000      1.5859088E-16
   16.78000      1.2582341E-16
   16.80000     -4.5222684E-18
   16.82000     -1.5224703E-16
   16.84000     -2.1170202E-16
   16.86000     -1.2536763E-16
   16.88000      6.6370855E-17
   16.90000      2.3953393E-16
   16.92000      2.6441716E-16