  -2.400000      0.0000000E+00
  -2.380000      0.0000000E+00
  -2.360000      0.0000000E+00
  -2.340000      0.0000000E+00
  -2.320000      0.0000000E+00
  -2.300000      0.0000000E+00
  -2.280000      0.0000000E+00
  -2.260000      0.0000000E+00
  -2.240000      0.0000000E+00
  -2.220000      0.0000000E+00
  -2.200000      0.0000000E+00
  -2.180000      0.0000000E+00
  -2.160000      0.0000000E+00
  -2.140000      0.0000000E+00
  -2.120000      0.0000000E+00
  -2.100000      0.0000000E+00
  -2.080000      0.0000000E+00
  -2.060000      0.0000000E+00
  -2.040000      0.0000000E+00
  -2.020000      0.0000000E+00
  -2.000000      0.0000000E+00
  -1.980000      0.0000000E+00
  -1.960000      0.0000000E+00
  -1.940000      0.0000000E+00
  -1.920000      0.0000000E+00
  -1.900000      0.0000000E+00
  -1.880000      0.0000000E+00
  -1.860000      0.0000000E+00
  -1.840000      0.0000000E+00
  -1.820000      0.0000000E+00
  -1.800000      0.0000000E+00
  -1.780000      0.0000000E+00
  -1.760000      0.0000000E+00
  -1.740000      0.0000000E+00
  -1.720000      0.0000000E+00
  -1.700000      0.0000000E+00
  -1.680000      0.0000000E+00
  -1.660000      0.0000000E+00
  -1.640000      0.0000000E+00
  -1.620000      0.0000000E+00
  -1.600000      0.0000000E+00
  -1.580000      0.0000000E+00
  -1.560000      0.0000000E+00
  -1.540000      0.0000000E+00
  -1.520000      0.0000000E+00
  -1.500000      0.0000000E+00
  -1.480000      0.0000000E+00
  -1.460000      0.0000000E+00
  -1.440000      0.0000000E+00
  -1.420000      0.0000000E+00
  -1.400000      0.0000000E+00
  -1.380000      0.0000000E+00
  -1.360000      0.0000000E+00
  -1.340000      0.0000000E+00
  -1.320000      0.0000000E+00
  -1.300000      0.0000000E+00
  -1.280000      0.0000000E+00
  -1.260000      0.0000000E+00
  -1.240000      0.0000000E+00
  -1.220000      0.0000000E+00
  -1.200000      0.0000000E+00
  -1.180000      0.0000000E+00
  -1.160000      0.0000000E+00
  -1.140000      0.0000000E+00
  -1.120000      0.0000000E+00
  -1.100000      0.0000000E+00
  -1.080000      0.0000000E+00
  -1.060000      0.0000000E+00
  -1.040000      0.0000000E+00
  -1.020000      0.0000000E+00
  -1.000000      0.0000000E+00
 -0.9800000      0.0000000E+00
 -0.9600000      0.0000000E+00
 -0.9400000      0.0000000E+00
 -0.9200000      0.0000000E+00
 -0.9000000      0.0000000E+00
 -0.8800000      0.0000000E+00
 -0.8600000      0.0000000E+00
 -0.8400000      0.0000000E+00
 -0.8200000      0.0000000E+00
 -0.8000000      0.0000000E+00
 -0.7800000      0.0000000E+00
 -0.7600000      0.0000000E+00
 -0.7400000      0.0000000E+00
 -0.7200000      0.0000000E+00
 -0.7000000      0.0000000E+00
 -0.6800000      0.0000000E+00
 -0.6600000      0.0000000E+00
 -0.6400000      0.0000000E+00
 -0.6200000      0.0000000E+00
 -0.6000000      0.0000000E+00
 -0.5800000      0.0000000E+00
 -0.5600000      0.0000000E+00
 -0.5400000      0.0000000E+00
 -0.5200000      0.0000000E+00
 -0.5000000      0.0000000E+00
 -0.4800000      0.0000000E+00
 -0.4600000      0.0000000E+00
 -0.4400000      0.0000000E+00
 -0.4200000      0.0000000E+00
 -0.4000000      0.0000000E+00
 -0.3800000      0.0000000E+00
 -0.3600000      0.0000000E+00
 -0.3400000      0.0000000E+00
 -0.3200000      0.0000000E+00
 -0.3000000      0.0000000E+00
 -0.2800000      0.0000000E+00
 -0.2600000      0.0000000E+00
 -0.2400000      0.0000000E+00
 -0.2200000      0.0000000E+00
 -0.2000000      0.0000000E+00
 -0.1800000      0.0000000E+00
 -0.1600000      0.0000000E+00
 -0.1400000      0.0000000E+00
 -0.1200000      0.0000000E+00
 -0.1000000      0.0000000E+00
 -7.9999998E-02  0.0000000E+00
 -5.9999999E-02  0.0000000E+00
 -3.9999999E-02  0.0000000E+00
 -2.0000000E-02  0.0000000E+00
  0.0000000E+00  0.0000000E+00
  2.0000000E-02  0.0000000E+00
  3.9999999E-02  0.0000000E+00
  5.9999999E-02  0.0000000E+00
  7.9999998E-02  0.0000000E+00
  0.1000000      0.0000000E+00
  0.1200000      0.0000000E+00
  0.1400000      0.0000000E+00
  0.1600000      0.0000000E+00
  0.1800000      0.0000000E+00
  0.2000000      0.0000000E+00
  0.2200000      0.0000000E+00
  0.2400000      0.0000000E+00
  0.2600000      0.0000000E+00
  0.2800000      0.0000000E+00
  0.3000000      0.0000000E+00
  0.3200000      0.0000000E+00
  0.3400000      0.0000000E+00
  0.3600000      0.0000000E+00
  0.3800000      0.0000000E+00
  0.4000000      0.0000000E+00
  0.4200000      0.0000000E+00
  0.4400000      0.0000000E+00
  0.4600000      0.0000000E+00
  0.4800000      0.0000000E+00
  0.5000000      0.0000000E+00
  0.5200000      0.0000000E+00
  0.5400000      0.0000000E+00
  0.5600000      0.0000000E+00
  0.5800000      0.0000000E+00
  0.6000000      0.0000000E+00
  0.6200000      0.0000000E+00
  0.6400000      0.0000000E+00
  0.6600000      0.0000000E+00
  0.6800000      0.0000000E+00
  0.7000000      0.0000000E+00
  0.7200000      0.0000000E+00
  0.7400000      0.0000000E+00
  0.7600000      0.0000000E+00
  0.7800000      0.0000000E+00
  0.8000000      0.0000000E+00
  0.8200000      0.0000000E+00
  0.8400000      0.0000000E+00
  0.8600000      0.0000000E+00
  0.8800000      0.0000000E+00
  0.9000000      0.0000000E+00
  0.9200000      0.0000000E+00
  0.9400000      0.0000000E+00
  0.9600000      0.0000000E+00
  0.9800000      0.0000000E+00
   1.000000      0.0000000E+00
   1.020000      0.0000000E+00
   1.040000      0.0000000E+00
   1.060000      0.0000000E+00
   1.080000      0.0000000E+00
   1.100000      0.0000000E+00
   1.120000      0.0000000E+00
   1.140000      0.0000000E+00
   1.160000      0.0000000E+00
   1.180000      0.0000000E+00
   1.200000      0.0000000E+00
   1.220000      0.0000000E+00
   1.240000      0.0000000E+00
   1.260000      0.0000000E+00
   1.280000      0.0000000E+00
   1.300000      0.0000000E+00
   1.320000      0.0000000E+00
   1.340000      0.0000000E+00
   1.360000      0.0000000E+00
   1.380000      0.0000000E+00
   1.400000      0.0000000E+00
   1.420000      0.0000000E+00
   1.440000      0.0000000E+00
   1.460000      0.0000000E+00
   1.480000      0.0000000E+00
   1.500000      0.0000000E+00
   1.520000      0.0000000E+00
   1.540000      0.0000000E+00
   1.560000      0.0000000E+00
   1.580000      0.0000000E+00
   1.600000      0.0000000E+00
   1.620000      0.0000000E+00
   1.640000      0.0000000E+00
   1.660000      0.0000000E+00
   1.680000      0.0000000E+00
   1.700000      0.0000000E+00
   1.720000      0.0000000E+00
   1.740000      0.0000000E+00
   1.760000      0.0000000E+00
   1.780000      0.0000000E+00
   1.800000      0.0000000E+00
   1.820000      0.0000000E+00
   1.840000      0.0000000E+00
   1.860000      0.0000000E+00
   1.880000      0.0000000E+00
   1.900000      0.0000000E+00
   1.920000      0.0000000E+00
   1.940000      0.0000000E+00
   1.960000      0.0000000E+00
   1.980000      0.0000000E+00
   2.000000      0.0000000E+00
   2.020000      0.0000000E+00
   2.040000      0.0000000E+00
   2.060000      0.0000000E+00
   2.080000      0.0000000E+00
   2.100000      0.0000000E+00
   2.120000      0.0000000E+00
   2.140000      0.0000000E+00
   2.160000      0.0000000E+00
   2.180000      0.0000000E+00
   2.200000      0.0000000E+00
   2.220000      0.0000000E+00
   2.240000      0.0000000E+00
   2.260000      0.0000000E+00
   2.280000      0.0000000E+00
   2.300000      0.0000000E+00
   2.320000      0.0000000E+00
   2.340000      0.0000000E+00
   2.360000      0.0000000E+00
   2.380000      0.0000000E+00
   2.400000      0.0000000E+00
   2.420000      0.0000000E+00
   2.440000      0.0000000E+00
   2.460000      0.0000000E+00
   2.480000      0.0000000E+00
   2.500000      0.0000000E+00
   2.520000      0.0000000E+00
   2.540000      0.0000000E+00
   2.560000      0.0000000E+00
   2.580000      0.0000000E+00
   2.600000      0.0000000E+00
   2.620000      0.0000000E+00
   2.640000      0.0000000E+00
   2.660000      0.0000000E+00
   2.680000      0.0000000E+00
   2.700000      0.0000000E+00
   2.720000      0.0000000E+00
   2.740000      0.0000000E+00
   2.760000      0.0000000E+00
   2.780000      0.0000000E+00
   2.800000      0.0000000E+00
   2.820000      0.0000000E+00
   2.840000      0.0000000E+00
   2.860000      0.0000000E+00
   2.880000      0.0000000E+00
   2.900000      0.0000000E+00
   2.920000      0.0000000E+00
   2.940000      0.0000000E+00
   2.960000      0.0000000E+00
   2.980000      0.0000000E+00
   3.000000      0.0000000E+00
   3.020000      0.0000000E+00
   3.040000      0.0000000E+00
   3.060000      0.0000000E+00
   3.080000      0.0000000E+00
   3.100000      0.0000000E+00
   3.120000      0.0000000E+00
   3.140000      0.0000000E+00
   3.160000      0.0000000E+00
   3.180000      0.0000000E+00
   3.200000      0.0000000E+00
   3.220000      0.0000000E+00
   3.240000      0.0000000E+00
   3.260000      0.0000000E+00
   3.280000      0.0000000E+00
   3.300000      0.0000000E+00
   3.320000      0.0000000E+00
   3.340000      0.0000000E+00
   3.360000      0.0000000E+00
   3.380000      0.0000000E+00
   3.400000      0.0000000E+00
   3.420000      0.0000000E+00
   3.440000      0.0000000E+00
   3.460000      0.0000000E+00
   3.480000      0.0000000E+00
   3.500000      0.0000000E+00
   3.520000      0.0000000E+00
   3.540000      0.0000000E+00
   3.560000      0.0000000E+00
   3.580000      0.0000000E+00
   3.600000      0.0000000E+00
   3.620000      0.0000000E+00
   3.640000      0.0000000E+00
   3.660000      0.0000000E+00
   3.680000     -1.2882318E-38
   3.700000     -1.2130721E-38
   3.720000     -3.0677383E-38
   3.740000     -4.5250318E-38
   3.760000     -6.8492509E-38
   3.780000     -1.0070690E-37
   3.800000     -7.4938981E-38
   3.820000      4.6122671E-38
   3.840000      1.6769472E-37
   3.860000      1.5747309E-37
   3.880000     -7.8765356E-38
   3.900000     -3.4274781E-37
   3.920000     -4.0426178E-37
   3.940000     -3.7698177E-38
   3.960000      3.3432237E-37
   3.980000     -3.8417568E-37
   4.000000     -1.7269034E-36
   4.020000     -2.8228027E-36
   4.040000     -1.0224537E-36
   4.060000      3.6203239E-36
   4.080000      7.2244309E-36
   4.100000      5.0064479E-36
   4.120000     -3.2320667E-36
   4.140000     -1.0693810E-35
   4.160000     -1.1680353E-35
   4.180000     -3.2577982E-36
   4.200000      9.9127278E-36
   4.220000      1.8753200E-35
   4.240000      1.6869658E-35
   4.260000      3.0127165E-36
   4.280000     -1.8394491E-35
   4.300000     -3.4288229E-35
   4.320000     -2.7730391E-35
   4.340000      9.5695851E-36
   4.360000      6.0678301E-35
   4.380000      8.3507067E-35
   4.400000      3.7706937E-35
   4.420000     -7.1149505E-35
   4.440000     -1.6889193E-34
   4.460000     -1.5092065E-34
   4.480000      2.7023195E-35
   4.500000      2.6891394E-34
   4.520000      3.6349410E-34
   4.540000      1.4041483E-34
   4.560000     -3.3683655E-34
   4.580000     -7.1785135E-34
   4.600000     -5.7477991E-34
   4.620000      2.0796408E-34
   4.640000      1.1653782E-33
   4.660000      1.4311941E-33
   4.680000      4.0352012E-34
   4.700000     -1.5285380E-33
   4.720000     -2.8886918E-33
   4.740000     -2.0488305E-33
   4.760000      1.2311414E-33
   4.780000      4.8922095E-33
   4.800000      5.5008775E-33
   4.820000      9.8070079E-34
   4.840000     -6.6820491E-33
   4.860000     -1.1447605E-32
   4.880000     -7.2389322E-33
   4.900000      6.0877666E-33
   4.920000      1.9779678E-32
   4.940000      2.0578541E-32
   4.960000      1.6162539E-33
   4.980000     -2.7841731E-32
   5.000000     -4.3917833E-32
   5.020000     -2.4674405E-32
   5.040000      2.7538362E-32
   5.060000      7.7131461E-32
   5.080000      7.4655082E-32
   5.100000     -1.4003027E-33
   5.120000     -1.1088786E-31
   5.140000     -1.6290832E-31
   5.160000     -8.0995734E-32
   5.180000      1.1620475E-31
   5.200000      2.9010810E-31
   5.220000      2.6238938E-31
   5.240000     -3.0453794E-32
   5.260000     -4.2456453E-31
   5.280000     -5.8568545E-31
   5.300000     -2.5571236E-31
   5.320000      4.6526715E-31
   5.340000      1.0575950E-30
   5.360000      8.9715826E-31
   5.380000     -1.9147016E-31
   5.400000     -1.5715020E-30
   5.420000     -2.0510703E-30
   5.440000     -7.8297723E-31
   5.460000      1.7774426E-30
   5.480000      3.7474564E-30
   5.500000      3.0007367E-30
   5.520000     -9.1190611E-31
   5.540000     -5.6227239E-30
   5.560000     -7.0040986E-30
   5.580000     -2.3436275E-30
   5.600000      6.4894947E-30
   5.620000      1.2895901E-29
   5.640000      9.8154674E-30
   5.660000     -3.7918288E-30
   5.680000     -1.9469130E-29
   5.700000     -2.3316486E-29
   5.720000     -6.8464838E-30
   5.740000      2.2807556E-29
   5.760000      4.3212418E-29
   5.780000      3.1470363E-29
   5.800000     -1.4487823E-29
   5.820000     -6.5535592E-29
   5.840000     -7.6034932E-29
   5.860000     -1.9872392E-29
   5.880000      7.7335386E-29
   5.900000      1.4149620E-28
   5.920000      9.9800811E-29
   5.940000     -5.1016969E-29
   5.960000     -2.1420501E-28
   5.980000     -2.4349104E-28
   6.000000     -5.9305257E-29
   6.020000      2.5152505E-28
   6.040000      4.5143913E-28
   6.060000      3.1326832E-28
   6.080000     -1.6616153E-28
   6.100000     -6.7711951E-28
   6.120000     -7.6243666E-28
   6.140000     -1.8169699E-28
   6.160000      7.8572828E-28
   6.180000      1.4005233E-27
   6.200000      9.6772462E-28
   6.220000     -5.1052334E-28
   6.240000     -2.0764425E-27
   6.260000     -2.3355616E-27
   6.280000     -5.6681423E-28
   6.300000      2.3716545E-27
   6.320000      4.2422081E-27
   6.340000      2.9559456E-27
   6.360000     -1.4764544E-27
   6.380000     -6.1906530E-27
   6.400000     -7.0289625E-27
   6.420000     -1.8345935E-27
   6.440000      6.8808970E-27
   6.460000      1.2533632E-26
   6.480000      8.9502810E-27
   6.500000     -3.9295065E-27
   6.520000     -1.7840069E-26
   6.540000     -2.0684877E-26
   6.560000     -6.0457556E-27
   6.580000      1.9087425E-26
   6.600000      3.5919216E-26
   6.620000      2.6572213E-26
   6.640000     -9.6313615E-27
   6.660000     -4.9670830E-26
   6.680000     -5.9255022E-26
   6.700000     -1.9519949E-26
   6.720000      5.0972546E-26
   6.740000      1.0010663E-25
   6.760000      7.7196030E-26
   6.780000     -2.1605216E-26
   6.800000     -1.3429643E-25
   6.820000     -1.6603228E-25
   6.840000     -6.2072365E-26
   6.860000      1.3072366E-25
   6.880000      2.7194069E-25
   6.900000      2.2074123E-25
   6.920000     -4.0424832E-26
   6.940000     -3.5060292E-25
   6.960000     -4.5418183E-25
   6.980000     -1.9460984E-25
   7.000000      3.1706386E-25
   7.020000      7.1454301E-25
   7.040000      6.1575120E-25
   7.060000     -4.8799524E-26
   7.080000     -8.7790437E-25
   7.100000     -1.2027591E-24
   7.120000     -5.8589681E-25
   7.140000      7.2753609E-25
   7.160000      1.8134709E-24
   7.180000      1.6631645E-24
   7.200000      3.1329762E-26
   7.220000     -2.1208354E-24
   7.240000     -3.0935332E-24
   7.260000     -1.6950075E-24
   7.280000      1.5788491E-24
   7.300000      4.4707315E-24
   7.320000      4.3842897E-24
   7.340000      5.1656772E-25
   7.360000     -4.9274954E-24
   7.380000     -7.7501766E-24
   7.400000     -4.7796857E-24
   7.420000      3.1199790E-24
   7.440000      1.0630025E-23
   7.460000      1.1246776E-23
   7.480000      2.4915399E-24
   7.500000     -1.0841788E-23
   7.520000     -1.8724128E-23
   7.540000     -1.2954576E-23
   7.560000      5.3668112E-24
   7.580000      2.4200752E-23
   7.600000      2.7764461E-23
   7.620000      8.8736423E-24
   7.640000     -2.2634800E-23
   7.660000     -4.3601472E-23
   7.680000     -3.3509527E-23
   7.700000      7.4894746E-24
   7.720000      5.3170714E-23
   7.740000      6.6380197E-23
   7.760000      2.7404561E-23
   7.780000     -4.4849090E-23
   7.800000     -9.8584698E-23
   7.820000     -8.3977058E-23
   7.840000      4.5525206E-24
   7.860000      1.1221365E-22
   7.880000      1.5413534E-22
   7.900000      7.8581420E-23
   7.920000     -8.1431050E-23
   7.940000     -2.1421741E-22
   7.960000     -2.0268124E-22
   7.980000     -2.0428800E-23
   8.000000      2.2372721E-22
   8.020000      3.4276802E-22
   8.040000      2.0754492E-22
   8.060000     -1.3190643E-22
   8.080000     -4.4429570E-22
   8.100000     -4.6491973E-22
   8.120000     -1.0685209E-22
   8.140000      4.2455348E-22
   8.160000      7.3190858E-22
   8.180000      5.0876459E-22
   8.200000     -1.8580105E-22
   8.220000     -8.9018619E-22
   8.240000     -1.0270483E-21
   8.260000     -3.5224962E-22
   8.280000      7.6718129E-22
   8.300000      1.5147516E-21
   8.320000      1.1931313E-21
   8.340000     -1.7615915E-22
   8.360000     -1.7085718E-21
   8.380000     -2.1887167E-21
   8.400000     -9.9241287E-22
   8.420000      1.2721710E-21
   8.440000      2.9922618E-21
   8.460000      2.6503255E-21
   8.480000      8.4037945E-23
   8.500000     -3.0910554E-21
   8.520000     -4.4216552E-21
   8.540000     -2.4405972E-21
   8.560000      1.9300618E-21
   8.580000      5.6321746E-21
   8.600000      5.5201502E-21
   8.620000      9.0492499E-22
   8.640000     -5.3813551E-21
   8.660000     -8.5724580E-21
   8.680000     -5.4535998E-21
   8.700000      2.7113922E-21
   8.720000      1.0309543E-20
   8.740000      1.1072035E-20
   8.760000      3.0341528E-21
   8.780000     -9.0241762E-21
   8.800000     -1.6138000E-20
   8.820000     -1.1612563E-20
   8.840000      3.1170573E-21
   8.860000      1.8097738E-20
   8.880000      2.1303555E-20
   8.900000      7.9783638E-21
   8.920000     -1.4163613E-20
   8.940000     -2.8877864E-20
   8.960000     -2.2972487E-20
   8.980000      2.4583685E-21
   9.000000      3.0338652E-20
   9.020000      3.8573813E-20
   9.040000      1.7065579E-20
   9.060000     -2.1960697E-20
   9.080000     -4.9922182E-20
   9.100000     -4.2207860E-20
   9.120000      1.1139048E-21
   9.140000      5.1012897E-20
   9.160000      6.8049861E-20
   9.180000      3.2678416E-20
   9.200000     -3.5357231E-20
   9.220000     -8.6288903E-20
   9.240000     -7.5720630E-20
   9.260000     -1.7942527E-21
   9.280000      8.5972836E-20
   9.300000      1.1835364E-19
   9.320000      5.9680777E-20
   9.340000     -5.7220846E-20
   9.360000     -1.4630462E-19
   9.380000     -1.2993308E-19
   9.400000     -4.1852205E-21
   9.420000      1.4535348E-19
   9.440000      1.9898423E-19
   9.460000      9.6121722E-20
   9.480000     -1.0420189E-19
   9.500000     -2.5152355E-19
   9.520000     -2.1318746E-19
   9.540000      1.1727202E-20
   9.560000      2.6785690E-19
   9.580000      3.4513602E-19
   9.600000      1.4484081E-19
   9.620000     -2.1675567E-19
   9.640000     -4.6546926E-19
   9.660000     -3.6949437E-19
   9.680000      5.7665481E-20
   9.700000      5.2109344E-19
   9.720000      6.3748489E-19
   9.740000      2.3989414E-19
   9.760000     -4.3937937E-19
   9.780000     -8.8482052E-19
   9.800000     -6.7425906E-19
   9.820000      1.4786708E-19
   9.840000      1.0137238E-18
   9.860000      1.2025709E-18
   9.880000      4.1443905E-19
   9.900000     -8.9166544E-19
   9.920000     -1.7254240E-18
   9.940000     -1.2840269E-18
   9.960000      3.3688171E-19
   9.980000      2.0340568E-18
   10.00000      2.4040389E-18
   10.02000      8.4787631E-19
   10.04000     -1.7610390E-18
   10.06000     -3.4891678E-18
   10.08000     -2.7173090E-18
   10.10000      4.5803901E-19
   10.12000      3.9444753E-18
   10.14000      4.9545013E-18
   10.16000      2.1434016E-18
   10.18000     -2.9951885E-18
   10.20000     -6.7659995E-18
   10.22000     -5.8309789E-18
   10.24000      7.5040904E-21
   10.26000      7.0156976E-18
   10.28000      9.7661699E-18
   10.30000      5.1889400E-18
   10.32000     -4.4840729E-18
   10.34000     -1.2474616E-17
   10.36000     -1.2023111E-17
   10.38000     -1.8248638E-18
   10.40000      1.1863658E-17
   10.42000      1.8774987E-17
   10.44000      1.2068851E-17
   10.46000     -5.5546113E-18
   10.48000     -2.2195312E-17
   10.50000     -2.4479297E-17
   10.52000     -7.8919193E-18
   10.54000      1.8008499E-17
   10.56000      3.4562769E-17
   10.58000      2.7074680E-17
   10.60000     -2.9057172E-18
   10.62000     -3.5909499E-17
   10.64000     -4.6674725E-17
   10.66000     -2.2941489E-17
   10.68000      2.2697186E-17
   10.70000      5.8384082E-17
   10.72000      5.4620456E-17
   10.74000      7.7042188E-18
   10.76000     -5.3048340E-17
   10.78000     -8.2650689E-17
   10.80000     -5.2895424E-17
   10.82000      2.2918328E-17
   10.84000      9.3514945E-17
   10.86000      1.0328257E-16
   10.88000      3.4729790E-17
   10.90000     -7.1812757E-17
   10.92000     -1.4017301E-16
   10.94000     -1.1156540E-16
   10.96000      7.2496111E-18
   10.98000      1.3894501E-16
   11.00000      1.8432849E-16
   11.02000      9.5417282E-17
   11.04000     -7.9809310E-17
   11.06000     -2.1982607E-16
   11.08000     -2.1201284E-16
   11.10000     -4.0598918E-17
   11.12000      1.8684529E-16
   11.14000      3.0391045E-16
   11.16000      2.0462865E-16
   11.18000     -6.6229486E-17
   11.20000     -3.2558446E-16
   11.22000     -3.7262994E-16
   11.24000     -1.4053421E-16
   11.26000      2.3289991E-16
   11.28000      4.8163326E-16
   11.30000      3.9725019E-16
   11.32000     -2.8873569E-18
   11.34000     -4.5692419E-16
   11.36000     -6.2484805E-16
   11.38000     -3.3831361E-16
   11.40000      2.4614605E-16
   11.42000      7.2179865E-16
   11.44000      7.0892486E-16
   11.46000      1.5004184E-16
   11.48000     -6.0107851E-16
   11.50000     -9.9376785E-16
   11.52000     -6.7591413E-16
   11.54000      2.0788789E-16
   11.56000      1.0579321E-15
   11.58000      1.2160961E-15
   11.60000      4.6263738E-16
   11.62000     -7.5402550E-16
   11.64000     -1.5676996E-15
   11.66000     -1.2995515E-15
   11.68000     -3.5470328E-18
   11.70000      1.4735132E-15
   11.72000      2.0300205E-15
   11.74000      1.1163055E-15
   11.76000     -7.6970059E-16
   11.78000     -2.3191999E-15
   11.80000     -2.3011687E-15
   11.82000     -5.1387165E-16
   11.84000      1.9181948E-15
   11.86000      3.2185026E-15
   11.88000      2.2240692E-15
   11.90000     -6.3940093E-16
   11.92000     -3.4549451E-15
   11.94000     -4.0597006E-15
   11.96000     -1.6536496E-15
   11.98000      2.3958863E-15
   12.00000      5.2745961E-15
   12.02000      4.6357711E-15
   12.04000      4.3382434E-16
   12.06000     -4.7125296E-15
   12.08000     -7.1037494E-15
   12.10000     -4.5730136E-15
   12.12000      1.6818778E-15
   12.14000      7.5233034E-15
   12.16000      8.5490781E-15
   12.18000      3.3358451E-15
   12.20000     -5.0838244E-15
   12.22000     -1.0853313E-14
   12.24000     -9.2545473E-15
   12.26000     -3.8890917E-16
   12.28000      1.0191108E-14
   12.30000      1.4802113E-14
   12.32000      9.0167538E-15
   12.34000     -4.5574303E-15
   12.36000     -1.7124562E-14
   12.38000     -1.9228595E-14
   12.40000     -7.5982201E-15
   12.42000      1.1505789E-14
   12.44000      2.5401200E-14
   12.46000      2.3239081E-14
   12.48000      4.1558960E-15
   12.50000     -2.0613861E-14
   12.52000     -3.4085717E-14
   12.54000     -2.4975478E-14
   12.56000      3.2957421E-15
   12.58000      3.2928477E-14
   12.60000      4.2549765E-14
   12.62000      2.2224127E-14
   12.64000     -1.7586450E-14
   12.66000     -5.0532871E-14
   12.68000     -5.1147298E-14
   12.70000     -1.3590215E-14
   12.72000      4.0924072E-14
   12.74000      7.5193351E-14
   12.76000      6.0492010E-14
   12.78000     -1.1517598E-15
   12.80000     -7.3331911E-14
   12.82000     -1.0589563E-13
   12.84000     -6.8821359E-14
   12.86000      2.2951838E-14
   12.88000      1.1304506E-13
   12.90000      1.3745438E-13
   12.92000      6.9126006E-14
   12.94000     -5.7034089E-14
   12.96000     -1.5971556E-13
   12.98000     -1.6244170E-13
   13.00000     -4.9192512E-14
   13.02000      1.1491674E-13
   13.04000      2.1822388E-13
   13.06000      1.7608152E-13
   13.08000     -3.5449487E-15
   13.10000     -2.1106031E-13
   13.12000     -2.9834699E-13
   13.14000     -1.8001192E-13
   13.16000      9.4165290E-14
   13.18000      3.5254698E-13
   13.20000      4.0509596E-13
   13.22000      1.7718092E-13
   13.24000     -2.1755595E-13
   13.26000     -5.2748691E-13
   13.28000     -5.2024026E-13
   13.30000     -1.5135758E-13
   13.32000      3.7458705E-13
   13.34000      7.1112783E-13
   13.36000      5.9499183E-13
   13.38000      4.6313901E-14
   13.40000     -6.0337840E-13
   13.42000     -9.0216501E-13
   13.44000     -5.8441847E-13
   13.46000      2.0950093E-13
   13.48000      9.7233126E-13
   13.50000      1.1400534E-12
   13.52000      4.9180961E-13
   13.54000     -6.3508975E-13
   13.56000     -1.4997412E-12
   13.58000     -1.4289019E-12
   13.60000     -3.1500684E-13
   13.62000      1.2142574E-12
   13.64000      2.1293011E-12
   13.66000      1.6743631E-12
   13.68000     -4.6730693E-14
   13.70000     -2.0097890E-12
   13.72000     -2.8592118E-12
   13.74000     -1.8236738E-12
   13.76000      6.4813844E-13
   13.78000      3.0286260E-12
   13.80000      3.6424787E-12
   13.82000      1.8361666E-12
   13.84000     -1.4177546E-12
   13.86000     -3.9955660E-12
   13.88000     -3.9890383E-12
   13.90000     -1.1079455E-12
   13.92000      2.8862236E-12
   13.94000      5.1667182E-12
   13.96000      3.7414898E-12
   13.98000     -9.7077164E-13
   14.00000     -6.0708630E-12
   14.02000     -7.8847146E-12
   14.04000     -4.4774293E-12
   14.06000      2.7077674E-12
   14.08000      9.3792847E-12
   14.10000      1.1019284E-11
   14.12000      6.0184726E-12
   14.14000     -2.8352041E-12
   14.16000     -9.7889526E-12
   14.18000     -9.8426866E-12
   14.20000     -2.4055263E-12
   14.22000      7.7182401E-12
   14.24000      1.3063157E-11
   14.26000      8.4973530E-12
   14.28000     -4.7748585E-12
   14.30000     -1.9167229E-11
   14.32000     -2.5158393E-11
   14.34000     -1.7652803E-11
   14.36000     -2.9183618E-15
   14.38000      1.7427613E-11
   14.40000      2.3796401E-11
   14.42000      1.5391828E-11
   14.44000     -9.5676657E-13
   14.46000     -1.1619258E-11
   14.48000     -5.3043815E-12
   14.50000      1.8197116E-11
   14.52000      4.5913516E-11
   14.54000      5.8589557E-11
   14.56000      4.2910293E-11
   14.58000      1.2149165E-12
   14.60000     -4.8301332E-11
   14.62000     -8.2066520E-11
   14.64000     -8.6146132E-11
   14.66000     -6.5808671E-11
   14.68000     -4.2390268E-11
   14.70000     -3.8335415E-11
   14.72000     -5.9729693E-11
   14.74000     -8.8501512E-11
   14.76000     -9.1112180E-11
   14.78000     -3.9794511E-11
   14.80000      6.6841796E-11
   14.82000      1.9811520E-10
   14.84000      3.0604316E-10
   14.86000      3.5259912E-10
   14.88000      3.3204370E-10
   14.90000      2.7260713E-10
   14.92000      2.1462852E-10
   14.94000      1.7847024E-10
   14.96000      1.4416934E-10
   14.98000      5.9017111E-11
   15.00000     -1.2846420E-10
   15.02000     -4.2829795E-10
   15.04000     -7.8941137E-10
   15.06000     -1.1162529E-09
   15.08000     -1.3142483E-09
   15.10000     -1.3364027E-09
   15.12000     -1.2002062E-09
   15.14000     -9.6185282E-10
   15.16000     -6.6331285E-10
   15.18000     -2.8830416E-10
   15.20000      2.3934912E-10
   15.22000      1.0075999E-09
   15.24000      2.0448834E-09
   15.26000      3.2712908E-09
   15.28000      4.5074291E-09
   15.30000      5.5405467E-09
   15.32000      6.2087633E-09
   15.34000      6.4486487E-09
   15.36000      6.2718017E-09
   15.38000      5.6816960E-09
   15.40000      4.5838804E-09
   15.42000      2.7515363E-09
   15.44000     -1.2461777E-10
   15.46000     -4.3293227E-09
   15.48000     -1.0028730E-08
   15.50000     -1.7258492E-08
   15.52000     -2.6015050E-08
   15.54000     -3.6404717E-08
   15.56000     -4.8763766E-08
   15.58000     -6.3676971E-08
   15.60000     -8.1886817E-08
   15.62000     -1.0416100E-07
   15.64000     -1.3122192E-07
   15.66000     -1.6381007E-07
   15.68000     -2.0287000E-07
   15.70000     -2.4976509E-07
   15.72000     -3.0640180E-07
   15.74000     -3.7519749E-07
   15.76000     -4.5892827E-07
   15.78000     -5.6058195E-07
   15.80000     -6.8335123E-07
   15.82000     -8.3082404E-07
   15.84000     -1.0073047E-06
   15.86000     -1.2181134E-06
   15.88000     -1.4697189E-06
   15.90000     -1.7696700E-06
   15.92000     -2.1264311E-06
   15.94000     -2.5493093E-06
   15.96000     -3.0486217E-06
   15.98000     -3.6361077E-06
   16.00000     -4.3254386E-06
   16.02000     -5.1326051E-06
   16.04000     -6.0760303E-06
   16.06000     -7.1764489E-06
   16.08000     -8.4567364E-06
   16.10000     -9.9419458E-06
   16.12000     -1.1659668E-05
   16.14000     -1.3640647E-05
   16.16000     -1.5919381E-05
   16.18000     -1.8534432E-05
   16.20000     -2.1528331E-05
   16.22000     -2.4947218E-05
   16.24000     -2.8840535E-05
   16.26000     -3.3261051E-05
   16.28000     -3.8265262E-05
   16.30000     -4.3913948E-05
   16.32000     -5.0272516E-05
   16.34000     -5.7410842E-05
   16.36000     -6.5402506E-05
   16.38000     -7.4323834E-05
   16.40000     -8.4253086E-05
   16.42000     -9.5270028E-05
   16.44000     -1.0745590E-04
   16.46000     -1.2089335E-04
   16.48000     -1.3566583E-04
   16.50000     -1.5185628E-04
   16.52000     -1.6954508E-04
   16.54000     -1.8880791E-04
   16.56000     -2.0971394E-04
   16.58000     -2.3232466E-04
   16.60000     -2.5669314E-04
   16.62000     -2.8286278E-04
   16.64000     -3.1086546E-04
   16.66000     -3.4071872E-04
   16.68000     -3.7242231E-04
   16.70000     -4.0595562E-04
   16.72000     -4.4127536E-04
   16.74000     -4.7831441E-04
   16.76000     -5.1698077E-04
   16.78000     -5.5715611E-04
   16.80000     -5.9869379E-04
   16.82000     -6.4141606E-04
   16.84000     -6.8511185E-04
   16.86000     -7.2953512E-04
   16.88000     -7.7440444E-04
   16.90000     -8.1940397E-04
   16.92000     -8.6418464E-04