  -2.400000      0.0000000E+00
  -2.380000      0.0000000E+00
  -2.360000      0.0000000E+00
  -2.340000      0.0000000E+00
  -2.320000      0.0000000E+00
  -2.300000      0.0000000E+00
  -2.280000      0.0000000E+00
  -2.260000      0.0000000E+00
  -2.240000      0.0000000E+00
  -2.220000      0.0000000E+00
  -2.200000      0.0000000E+00
  -2.180000      0.0000000E+00
  -2.160000      0.0000000E+00
  -2.140000      0.0000000E+00
  -2.120000      0.0000000E+00
  -2.100000      0.0000000E+00
  -2.080000      0.0000000E+00
  -2.060000      0.0000000E+00
  -2.040000      0.0000000E+00
  -2.020000      0.0000000E+00
  -2.000000      0.0000000E+00
  -1.980000      0.0000000E+00
  -1.960000      0.0000000E+00
  -1.940000      0.0000000E+00
  -1.920000      0.0000000E+00
  -1.900000      0.0000000E+00
  -1.880000      0.0000000E+00
  -1.860000      0.0000000E+00
  -1.840000      0.0000000E+00
  -1.820000      0.0000000E+00
  -1.800000      0.0000000E+00
  -1.780000      0.0000000E+00
  -1.760000      0.0000000E+00
  -1.740000      0.0000000E+00
  -1.720000      0.0000000E+00
  -1.700000      0.0000000E+00
  -1.680000      0.0000000E+00
  -1.660000      0.0000000E+00
  -1.640000      0.0000000E+00
  -1.620000      0.0000000E+00
  -1.600000      0.0000000E+00
  -1.580000      0.0000000E+00
  -1.560000      0.0000000E+00
  -1.540000      0.0000000E+00
  -1.520000      0.0000000E+00
  -1.500000      0.0000000E+00
  -1.480000      0.0000000E+00
  -1.460000      0.0000000E+00
  -1.440000      0.0000000E+00
  -1.420000      0.0000000E+00
  -1.400000      0.0000000E+00
  -1.380000      0.0000000E+00
  -1.360000      0.0000000E+00
  -1.340000      0.0000000E+00
  -1.320000      0.0000000E+00
  -1.300000      0.0000000E+00
  -1.280000      0.0000000E+00
  -1.260000      0.0000000E+00
  -1.240000      0.0000000E+00
  -1.220000      0.0000000E+00
  -1.200000      0.0000000E+00
  -1.180000      0.0000000E+00
  -1.160000      0.0000000E+00
  -1.140000      0.0000000E+00
  -1.120000      0.0000000E+00
  -1.100000      0.0000000E+00
  -1.080000      0.0000000E+00
  -1.060000      0.0000000E+00
  -1.040000      0.0000000E+00
  -1.020000      0.0000000E+00
  -1.000000      0.0000000E+00
 -0.9800000      0.0000000E+00
 -0.9600000      0.0000000E+00
 -0.9400000      0.0000000E+00
 -0.9200000      0.0000000E+00
 -0.9000000      0.0000000E+00
 -0.8800000      0.0000000E+00
 -0.8600000      0.0000000E+00
 -0.8400000      0.0000000E+00
 -0.8200000      0.0000000E+00
 -0.8000000      0.0000000E+00
 -0.7800000      0.0000000E+00
 -0.7600000      0.0000000E+00
 -0.7400000      0.0000000E+00
 -0.7200000      0.0000000E+00
 -0.7000000      0.0000000E+00
 -0.6800000      0.0000000E+00
 -0.6600000      0.0000000E+00
 -0.6400000      0.0000000E+00
 -0.6200000      0.0000000E+00
 -0.6000000      0.0000000E+00
 -0.5800000      0.0000000E+00
 -0.5600000      0.0000000E+00
 -0.5400000      0.0000000E+00
 -0.5200000      0.0000000E+00
 -0.5000000      0.0000000E+00
 -0.4800000      0.0000000E+00
 -0.4600000      0.0000000E+00
 -0.4400000      0.0000000E+00
 -0.4200000      0.0000000E+00
 -0.4000000      0.0000000E+00
 -0.3800000      0.0000000E+00
 -0.3600000      0.0000000E+00
 -0.3400000      0.0000000E+00
 -0.3200000      0.0000000E+00
 -0.3000000      0.0000000E+00
 -0.2800000      0.0000000E+00
 -0.2600000      0.0000000E+00
 -0.2400000      0.0000000E+00
 -0.2200000      0.0000000E+00
 -0.2000000      0.0000000E+00
 -0.1800000      0.0000000E+00
 -0.1600000      0.0000000E+00
 -0.1400000      0.0000000E+00
 -0.1200000      0.0000000E+00
 -0.1000000      0.0000000E+00
 -7.9999998E-02  0.0000000E+00
 -5.9999999E-02  0.0000000E+00
 -3.9999999E-02  0.0000000E+00
 -2.0000000E-02  0.0000000E+00
  0.0000000E+00  0.0000000E+00
  2.0000000E-02  0.0000000E+00
  3.9999999E-02  0.0000000E+00
  5.9999999E-02  0.0000000E+00
  7.9999998E-02  0.0000000E+00
  0.1000000      0.0000000E+00
  0.1200000      0.0000000E+00
  0.1400000      0.0000000E+00
  0.1600000      0.0000000E+00
  0.1800000      0.0000000E+00
  0.2000000      0.0000000E+00
  0.2200000      0.0000000E+00
  0.2400000      0.0000000E+00
  0.2600000      0.0000000E+00
  0.2800000      0.0000000E+00
  0.3000000      0.0000000E+00
  0.3200000      0.0000000E+00
  0.3400000      0.0000000E+00
  0.3600000      0.0000000E+00
  0.3800000      0.0000000E+00
  0.4000000      0.0000000E+00
  0.4200000      0.0000000E+00
  0.4400000      0.0000000E+00
  0.4600000      0.0000000E+00
  0.4800000      0.0000000E+00
  0.5000000      0.0000000E+00
  0.5200000      0.0000000E+00
  0.5400000      0.0000000E+00
  0.5600000      0.0000000E+00
  0.5800000      0.0000000E+00
  0.6000000      0.0000000E+00
  0.6200000      0.0000000E+00
  0.6400000      0.0000000E+00
  0.6600000      0.0000000E+00
  0.6800000      0.0000000E+00
  0.7000000      0.0000000E+00
  0.7200000      0.0000000E+00
  0.7400000      0.0000000E+00
  0.7600000      0.0000000E+00
  0.7800000      0.0000000E+00
  0.8000000      0.0000000E+00
  0.8200000      0.0000000E+00
  0.8400000      0.0000000E+00
  0.8600000      0.0000000E+00
  0.8800000      0.0000000E+00
  0.9000000      0.0000000E+00
  0.9200000      0.0000000E+00
  0.9400000      0.0000000E+00
  0.9600000      0.0000000E+00
  0.9800000      0.0000000E+00
   1.000000      0.0000000E+00
   1.020000      0.0000000E+00
   1.040000      0.0000000E+00
   1.060000      0.0000000E+00
   1.080000      0.0000000E+00
   1.100000      0.0000000E+00
   1.120000      0.0000000E+00
   1.140000      0.0000000E+00
   1.160000      0.0000000E+00
   1.180000      0.0000000E+00
   1.200000      0.0000000E+00
   1.220000      0.0000000E+00
   1.240000      0.0000000E+00
   1.260000      0.0000000E+00
   1.280000      0.0000000E+00
   1.300000      0.0000000E+00
   1.320000      0.0000000E+00
   1.340000      0.0000000E+00
   1.360000      0.0000000E+00
   1.380000      0.0000000E+00
   1.400000      0.0000000E+00
   1.420000      0.0000000E+00
   1.440000      0.0000000E+00
   1.460000      0.0000000E+00
   1.480000      0.0000000E+00
   1.500000      0.0000000E+00
   1.520000      0.0000000E+00
   1.540000      0.0000000E+00
   1.560000      0.0000000E+00
   1.580000      0.0000000E+00
   1.600000      0.0000000E+00
   1.620000      0.0000000E+00
   1.640000      0.0000000E+00
   1.660000      0.0000000E+00
   1.680000      0.0000000E+00
   1.700000      0.0000000E+00
   1.720000      0.0000000E+00
   1.740000      0.0000000E+00
   1.760000     -1.2895020E-38
   1.780000     -1.8354565E-38
   1.800000     -1.9579119E-38
   1.820000      0.0000000E+00
   1.840000      0.0000000E+00
   1.860000      0.0000000E+00
   1.880000     -5.2924919E-38
   1.900000     -1.1285644E-37
   1.920000     -2.9234485E-37
   1.940000     -4.5560554E-37
   1.960000     -4.5999189E-37
   1.980000     -1.9859897E-37
   2.000000     -1.9986878E-38
   2.020000      2.6030991E-38
   2.040000      4.4620657E-37
   2.060000      8.3975678E-37
   2.080000      2.9488406E-38
   2.100000     -3.9748089E-37
   2.120000      1.0503084E-36
   2.140000      3.5381020E-36
   2.160000     -1.1847090E-36
   2.180000     -1.3178121E-35
   2.200000     -2.1614717E-35
   2.220000     -4.7052939E-36
   2.240000      4.2307810E-35
   2.260000      8.3576070E-35
   2.280000      5.5539611E-35
   2.300000     -7.0032452E-35
   2.320000     -2.1821163E-34
   2.340000     -2.2293971E-34
   2.360000      3.8575314E-35
   2.380000      4.6233120E-34
   2.400000      6.7289360E-34
   2.420000      2.6474403E-34
   2.440000     -7.4922819E-34
   2.460000     -1.6518183E-33
   2.480000     -1.3400600E-33
   2.500000      6.9687456E-34
   2.520000      3.3896596E-33
   2.540000      4.1935559E-33
   2.560000      9.1364656E-34
   2.580000     -5.6170726E-33
   2.600000     -1.0408468E-32
   2.620000     -7.0253626E-33
   2.640000      6.2926542E-33
   2.660000      2.1591811E-32
   2.680000      2.3505013E-32
   2.700000      1.1843090E-33
   2.720000     -3.6925848E-32
   2.740000     -5.9784426E-32
   2.760000     -3.2914077E-32
   2.780000      4.6447443E-32
   2.800000      1.2621764E-31
   2.820000      1.2104376E-31
   2.840000     -1.6663845E-32
   2.860000     -2.2205728E-31
   2.880000     -3.1777038E-31
   2.900000     -1.3455139E-31
   2.920000      3.0290359E-31
   2.940000      6.8438433E-31
   2.960000      5.7198126E-31
   2.980000     -2.1109236E-31
   3.000000     -1.2370068E-30
   3.020000     -1.5678226E-30
   3.040000     -4.4668216E-31
   3.060000      1.7968189E-30
   3.080000      3.4609668E-30
   3.100000      2.4681855E-30
   3.120000     -1.6682778E-30
   3.140000     -6.4233134E-30
   3.160000     -7.1914961E-30
   3.180000     -9.2671545E-31
   3.200000      9.8017406E-30
   3.220000      1.6351440E-29
   3.240000      9.6294895E-30
   3.260000     -1.0710060E-29
   3.280000     -3.1114692E-29
   3.300000     -3.0598687E-29
   3.320000      1.5854297E-30
   3.340000      4.9353258E-29
   3.360000      7.2032560E-29
   3.380000      3.3154014E-29
   3.400000     -5.9885016E-29
   3.420000     -1.4043993E-28
   3.440000     -1.2001807E-28
   3.460000      3.2586398E-29
   3.480000      2.3006567E-28
   3.500000      2.9511398E-28
   3.520000      9.5143762E-29
   3.540000     -3.0064477E-28
   3.560000     -5.9062301E-28
   3.580000     -4.3062200E-28
   3.600000      2.3939071E-28
   3.620000      9.9577088E-28
   3.640000      1.1227079E-27
   3.660000      1.9071667E-28
   3.680000     -1.3751865E-27
   3.700000     -2.3146531E-27
   3.720000     -1.3978868E-27
   3.740000      1.3318754E-27
   3.760000      4.0080959E-27
   3.780000      3.9551194E-27
   3.800000     -2.4133809E-29
   3.820000     -5.7847532E-27
   3.840000     -8.4496132E-27
   3.860000     -4.0049459E-27
   3.880000      6.3462681E-27
   3.900000      1.5050842E-26
   3.920000      1.2842848E-26
   3.940000     -2.8879670E-27
   3.960000     -2.2623548E-26
   3.980000     -2.8797700E-26
   4.000000     -9.5485226E-27
   4.020000      2.7215307E-26
   4.040000      5.3113049E-26
   4.060000      3.8332369E-26
   4.080000     -1.9879555E-26
   4.100000     -8.3165193E-26
   4.120000     -9.2222166E-26
   4.140000     -1.5767568E-26
   4.160000      1.0747625E-25
   4.180000      1.7752104E-25
   4.200000      1.0490878E-25
   4.220000     -9.8382591E-26
   4.240000     -2.8931693E-25
   4.260000     -2.7897270E-25
   4.280000      3.6279266E-27
   4.300000      3.9580807E-25
   4.320000      5.6458898E-25
   4.340000      2.5928127E-25
   4.360000     -4.1500335E-25
   4.380000     -9.5786992E-25
   4.400000     -7.9819604E-25
   4.420000      1.8631009E-25
   4.440000      1.3768698E-24
   4.460000      1.7172321E-24
   4.480000      5.5338405E-25
   4.500000     -1.5867478E-24
   4.520000     -3.0417889E-24
   4.540000     -2.1650266E-24
   4.560000      1.1024581E-24
   4.580000      4.5706199E-24
   4.600000      5.0269222E-24
   4.620000      8.9847047E-25
   4.640000     -5.6379834E-24
   4.660000     -9.3084340E-24
   4.680000     -5.5724811E-24
   4.700000      4.8101874E-24
   4.720000      1.4525998E-23
   4.740000      1.4179663E-23
   4.760000      3.8217624E-25
   4.780000     -1.8847932E-23
   4.800000     -2.7447544E-23
   4.820000     -1.3469483E-23
   4.840000      1.8201342E-23
   4.860000      4.4329146E-23
   4.880000      3.8475899E-23
   4.900000     -5.3992894E-24
   4.920000     -5.9979884E-23
   4.940000     -7.8201738E-23
   4.960000     -3.0149538E-23
   4.980000      6.2983551E-23
   5.000000      1.3059534E-22
   5.020000      1.0096489E-22
   5.040000     -3.2534192E-23
   5.060000     -1.8261504E-22
   5.080000     -2.1635592E-22
   5.100000     -6.2383707E-23
   5.120000      2.0207123E-22
   5.140000      3.7159961E-22
   5.160000      2.5815076E-22
   5.180000     -1.3021419E-22
   5.200000     -5.3071098E-22
   5.220000     -5.8136787E-22
   5.240000     -1.1917840E-22
   5.260000      6.0509418E-22
   5.280000      1.0192877E-21
   5.300000      6.4544645E-22
   5.320000     -4.3507827E-22
   5.340000     -1.4742025E-21
   5.360000     -1.5198234E-21
   5.380000     -2.1126705E-22
   5.400000      1.7067466E-21
   5.420000      2.7047459E-21
   5.440000      1.5965503E-21
   5.460000     -1.2886160E-21
   5.480000     -3.9291115E-21
   5.500000     -3.8943772E-21
   5.520000     -3.8792216E-22
   5.540000      4.5434083E-21
   5.560000      6.9640683E-21
   5.580000      3.9701523E-21
   5.600000     -3.4295542E-21
   5.620000     -1.0036463E-20
   5.640000     -9.8035015E-21
   5.660000     -9.0817585E-22
   5.680000      1.1406638E-20
   5.700000      1.7370572E-20
   5.720000      9.9271949E-21
   5.740000     -8.3159981E-21
   5.760000     -2.4591357E-20
   5.780000     -2.4194422E-20
   5.800000     -2.7215743E-21
   5.820000      2.7199602E-20
   5.840000      4.2074280E-20
   5.860000      2.4838775E-20
   5.880000     -1.8606273E-20
   5.900000     -5.8135759E-20
   5.920000     -5.8688200E-20
   5.940000     -9.0781069E-21
   5.960000      6.1888354E-20
   5.980000      9.9282780E-20
   6.000000      6.2066231E-20
   6.020000     -3.8069740E-20
   6.040000     -1.3261208E-19
   6.060000     -1.3960179E-19
   6.080000     -2.9941919E-20
   6.100000      1.3393261E-19
   6.120000      2.2721827E-19
   6.140000      1.5254520E-19
   6.160000     -7.0295411E-20
   6.180000     -2.9098834E-19
   6.200000     -3.2260794E-19
   6.220000     -9.0466068E-20
   6.240000      2.7635525E-19
   6.260000      5.0275826E-19
   6.280000      3.6322594E-19
   6.300000     -1.1574312E-19
   6.320000     -6.1566469E-19
   6.340000     -7.2231407E-19
   6.360000     -2.5054075E-19
   6.380000      5.4470143E-19
   6.400000      1.0762116E-18
   6.420000      8.3712849E-19
   6.440000     -1.5569760E-19
   6.460000     -1.2523082E-18
   6.480000     -1.5643416E-18
   6.500000     -6.5080125E-19
   6.520000      1.0114187E-18
   6.540000      2.2147263E-18
   6.560000      1.8591134E-18
   6.580000     -1.1038031E-19
   6.600000     -2.4252919E-18
   6.620000     -3.2519892E-18
   6.640000     -1.5845890E-18
   6.660000      1.7444917E-18
   6.680000      4.3558041E-18
   6.700000      3.9533137E-18
   6.720000      2.3101159E-19
   6.740000     -4.4587976E-18
   6.760000     -6.4832634E-18
   6.780000     -3.6412395E-18
   6.800000      2.7444407E-18
   6.820000      8.1948163E-18
   6.840000      8.0940442E-18
   6.860000      1.4190709E-18
   6.880000     -7.7224010E-18
   6.900000     -1.2423767E-17
   6.920000     -8.0313464E-18
   6.940000      3.6631201E-18
   6.960000      1.4646396E-17
   6.980000      1.5969436E-17
   7.000000      4.7684766E-18
   7.020000     -1.2314348E-17
   7.040000     -2.2715983E-17
   7.060000     -1.6929552E-17
   7.080000      3.3542842E-18
   7.100000      2.4601299E-17
   7.120000      3.0116931E-17
   7.140000      1.2764107E-17
   7.160000     -1.7708850E-17
   7.180000     -3.9480857E-17
   7.200000     -3.3863937E-17
   7.220000     -6.1245724E-19
   7.240000      3.8764986E-17
   7.260000      5.4317622E-17
   7.280000      2.9841593E-17
   7.300000     -2.2089881E-17
   7.320000     -6.5277269E-17
   7.340000     -6.4468657E-17
   7.360000     -1.3178145E-17
   7.380000      5.6598728E-17
   7.400000      9.3311578E-17
   7.420000      6.3126030E-17
   7.440000     -2.0816200E-17
   7.460000     -1.0137330E-16
   7.480000     -1.1531292E-16
   7.500000     -4.1819618E-17
   7.520000      7.4838081E-17
   7.540000      1.5020836E-16
   7.560000      1.1975487E-16
   7.580000     -7.7872768E-18
   7.600000     -1.4672076E-16
   7.620000     -1.9052926E-16
   7.640000     -9.2337702E-17
   7.660000      9.0182877E-17
   7.680000      2.2585850E-16
   7.700000      2.0307766E-16
   7.720000      1.9907645E-17
   7.740000     -2.0034382E-16
   7.760000     -2.9031432E-16
   7.780000     -1.6481721E-16
   7.800000      1.0223663E-16
   7.820000      3.1750215E-16
   7.840000      3.0722293E-16
   7.860000      5.6782740E-17
   7.880000     -2.6057963E-16
   7.900000     -4.0165127E-16
   7.920000     -2.3970479E-16
   7.940000      1.2286594E-16
   7.960000      4.1461146E-16
   7.980000      3.9753615E-16
   8.000000      6.2396484E-17
   8.020000     -3.4332786E-16
   8.040000     -4.9485846E-16
   8.060000     -2.5027076E-16
   8.080000      2.1585944E-16
   8.100000      5.2966580E-16
   8.120000      4.1403037E-16
   8.140000     -6.7094757E-17
   8.160000     -5.2907822E-16
   8.180000     -5.6437207E-16
   8.200000     -9.4637264E-17
   8.220000      5.2029735E-16
   8.240000      7.4276695E-16
   8.260000      3.0995397E-16
   8.280000     -4.9004223E-16
   8.300000     -9.8750987E-16
   8.320000     -6.6640571E-16
   8.340000      3.4588935E-16
   8.360000      1.2725699E-15
   8.380000      1.2543257E-15
   8.400000      9.4989292E-17
   8.420000     -1.4317443E-15
   8.440000     -2.0617218E-15
   8.460000     -1.0385989E-15
   8.480000      1.1285807E-15
   8.500000      2.8403156E-15
   8.520000      2.5416484E-15
   8.540000      4.1872309E-17
   8.560000     -3.0506152E-15
   8.580000     -4.3042280E-15
   8.600000     -2.3054424E-15
   8.620000      1.9864860E-15
   8.640000      5.5631798E-15
   8.660000      5.4075443E-15
   8.680000      9.1294619E-16
   8.700000     -5.1878388E-15
   8.720000     -8.3813258E-15
   8.740000     -5.6136223E-15
   8.760000      2.0521294E-15
   8.780000      9.5412510E-15
   8.800000      1.1016396E-14
   8.820000      4.2698372E-15
   8.840000     -6.9495297E-15
   8.860000     -1.4808852E-14
   8.880000     -1.2714278E-14
   8.900000     -5.6952214E-16
   8.920000      1.4062619E-14
   8.940000      2.0453904E-14
   8.960000      1.2361397E-14
   8.980000     -6.4722283E-15
   9.000000     -2.3508663E-14
   9.020000     -2.5493781E-14
   9.040000     -8.4224145E-15
   9.060000      1.7879468E-14
   9.080000      3.4937504E-14
   9.100000      2.8256804E-14
   9.120000     -9.8563634E-16
   9.140000     -3.4255713E-14
   9.160000     -4.6934668E-14
   9.180000     -2.6087310E-14
   9.200000      1.7787424E-14
   9.220000      5.5005805E-14
   9.240000      5.6302964E-14
   9.260000      1.5240198E-14
   9.280000     -4.3337421E-14
   9.300000     -7.7506510E-14
   9.320000     -5.7761372E-14
   9.340000      8.5422197E-15
   9.360000      7.7408024E-14
   9.380000      9.6637291E-14
   9.400000      4.4728313E-14
   9.420000     -4.8278337E-14
   9.440000     -1.1672537E-13
   9.460000     -1.0494075E-13
   9.480000     -1.1389299E-14
   9.500000      1.0297284E-13
   9.520000      1.5341045E-13
   9.540000      9.3452298E-14
   9.560000     -4.4679172E-14
   9.580000     -1.6519773E-13
   9.600000     -1.7458200E-13
   9.620000     -5.3389154E-14
   9.640000      1.2059608E-13
   9.660000      2.2120390E-13
   9.680000      1.6504039E-13
   9.700000     -2.0589380E-14
   9.720000     -2.0753709E-13
   9.740000     -2.5464732E-13
   9.760000     -1.1381916E-13
   9.780000      1.2513051E-13
   9.800000      2.9054989E-13
   9.820000      2.5192183E-13
   9.840000      2.1670030E-14
   9.860000     -2.4318492E-13
   9.880000     -3.4830090E-13
   9.900000     -2.0488064E-13
   9.920000      9.7224271E-14
   9.940000      3.4556597E-13
   9.960000      3.5585342E-13
   9.980000      1.0975367E-13
   10.00000     -2.2378102E-13
   10.02000     -4.0493740E-13
   10.04000     -2.9660242E-13
   10.06000      3.1244111E-14
   10.08000      3.4576121E-13
   10.10000      4.1619141E-13
   10.12000      1.8199957E-13
   10.14000     -1.9834002E-13
   10.16000     -4.5571332E-13
   10.18000     -4.0031176E-13
   10.20000     -5.8100700E-14
   10.22000      3.4360112E-13
   10.24000      5.3168228E-13
   10.26000      3.7486973E-13
   10.28000     -2.6817997E-14
   10.30000     -4.1098990E-13
   10.32000     -5.3047042E-13
   10.34000     -3.1719058E-13
   10.36000      7.7341040E-14
   10.38000      3.8888481E-13
   10.40000      4.1985507E-13
   10.42000      1.7031320E-13
   10.44000     -1.6618395E-13
   10.46000     -3.3873750E-13
   10.48000     -2.1680277E-13
   10.50000      1.1068010E-13
   10.52000      3.8719090E-13
   10.54000      3.6607954E-13
   10.56000     -7.4415063E-16
   10.58000     -4.9751999E-13
   10.60000     -7.6658656E-13
   10.62000     -5.5460291E-13
   10.64000      8.1631072E-14
   10.66000      7.7121886E-13
   10.68000      1.0618010E-12
   10.70000      7.4592822E-13
   10.72000      3.9728630E-14
   10.74000     -5.5100006E-13
   10.76000     -6.1582797E-13
   10.78000     -1.9444139E-13
   10.80000      2.0734961E-13
   10.82000      1.7880391E-14
   10.84000     -8.5349951E-13
   10.86000     -1.7815536E-12
   10.88000     -1.7912099E-12
   10.90000     -3.5089344E-13
   10.92000      2.0002218E-12
   10.94000      3.7858579E-12
   10.96000      3.5674009E-12
   10.98000      1.1358219E-12
   11.00000     -2.0349211E-12
   11.02000     -3.6224561E-12
   11.04000     -2.1692574E-12
   11.06000      1.5536667E-12
   11.08000      4.7250953E-12
   11.10000      4.3558785E-12
   11.12000     -3.2566828E-13
   11.14000     -6.8200463E-12
   11.16000     -1.0722606E-11
   11.18000     -8.8370882E-12
   11.20000     -1.8473018E-12
   11.22000      5.6506557E-12
   11.24000      8.2048552E-12
   11.26000      3.7229057E-12
   11.28000     -4.2959091E-12
   11.30000     -8.5731812E-12
   11.32000     -3.1262078E-12
   11.34000      1.1801601E-11
   11.36000      2.8707720E-11
   11.38000      3.6978511E-11
   11.40000      2.9783655E-11
   11.42000      8.9969629E-12
   11.44000     -1.5574937E-11
   11.46000     -3.2540505E-11
   11.48000     -3.6670691E-11
   11.50000     -3.2546188E-11
   11.52000     -3.1170736E-11
   11.54000     -4.1458576E-11
   11.56000     -6.2287266E-11
   11.58000     -8.0811129E-11
   11.60000     -7.8801209E-11
   11.62000     -4.3480539E-11
   11.64000      2.3808127E-11
   11.66000      1.0663798E-10
   11.68000      1.8109868E-10
   11.70000      2.2757016E-10
   11.72000      2.3969082E-10
   11.74000      2.2514274E-10
   11.76000      1.9767890E-10
   11.78000      1.6507357E-10
   11.80000      1.2045946E-10
   11.82000      4.3208832E-11
   11.84000     -8.9474421E-11
   11.86000     -2.8543223E-10
   11.88000     -5.2443344E-10
   11.90000     -7.5801082E-10
   11.92000     -9.2492047E-10
   11.94000     -9.7547026E-10
   11.96000     -8.9082575E-10
   11.98000     -6.8406647E-10
   12.00000     -3.7988859E-10
   12.02000      1.5291102E-11
   12.04000      5.3112131E-10
   12.06000      1.2208958E-09
   12.08000      2.1188091E-09
   12.10000      3.1892264E-09
   12.12000      4.3015040E-09
   12.14000      5.2528986E-09
   12.16000      5.8323066E-09
   12.18000      5.8873026E-09
   12.20000      5.3484821E-09
   12.22000      4.1887280E-09
   12.24000      2.3386302E-09
   12.26000     -3.8613540E-10
   12.28000     -4.2911799E-09
   12.30000     -9.7312407E-09
   12.32000     -1.7004499E-08
   12.34000     -2.6290810E-08
   12.36000     -3.7691443E-08
   12.38000     -5.1363664E-08
   12.40000     -6.7675948E-08
   12.42000     -8.7288129E-08
   12.44000     -1.1110599E-07
   12.46000     -1.4014687E-07
   12.48000     -1.7542317E-07
   12.50000     -2.1795192E-07
   12.52000     -2.6892300E-07
   12.54000     -3.2995231E-07
   12.56000     -4.0328177E-07
   12.58000     -4.9181500E-07
   12.60000     -5.9898377E-07
   12.62000     -7.2856005E-07
   12.64000     -8.8458069E-07
   12.66000     -1.0714903E-06
   12.68000     -1.2944771E-06
   12.70000     -1.5598484E-06
   12.72000     -1.8752631E-06
   12.74000     -2.2497304E-06
   12.76000     -2.6934406E-06
   12.78000     -3.2176217E-06
   12.80000     -3.8346225E-06
   12.82000     -4.5582888E-06
   12.84000     -5.4045272E-06
   12.86000     -6.3918128E-06
   12.88000     -7.5414323E-06
   12.90000     -8.8773977E-06
   12.92000     -1.0426209E-05
   12.94000     -1.2216729E-05
   12.96000     -1.4280420E-05
   12.98000     -1.6651949E-05
   13.00000     -1.9369916E-05
   13.02000     -2.2477363E-05
   13.04000     -2.6021793E-05
   13.06000     -3.0054724E-05
   13.08000     -3.4631110E-05
   13.10000     -3.9809016E-05
   13.12000     -4.5649867E-05
   13.14000     -5.2219111E-05
   13.16000     -5.9586841E-05
   13.18000     -6.7827816E-05
   13.20000     -7.7020610E-05
   13.22000     -8.7246190E-05
   13.24000     -9.8586468E-05
   13.26000     -1.1112350E-04
   13.28000     -1.2493941E-04
   13.30000     -1.4011671E-04
   13.32000     -1.5673810E-04
   13.34000     -1.7488508E-04
   13.36000     -1.9463550E-04
   13.38000     -2.1606043E-04
   13.40000     -2.3922163E-04
   13.42000     -2.6417023E-04
   13.44000     -2.9094631E-04
   13.46000     -3.1957834E-04
   13.48000     -3.5008162E-04
   13.50000     -3.8245515E-04
   13.52000     -4.1667727E-04
   13.54000     -4.5270188E-04
   13.56000     -4.9045595E-04
   13.58000     -5.2983896E-04
   13.60000     -5.7072286E-04
   13.62000     -6.1295216E-04
   13.64000     -6.5634178E-04
   13.66000     -7.0067350E-04
   13.68000     -7.4569188E-04
   13.70000     -7.9110265E-04
   13.72000     -8.3657308E-04
   13.74000     -8.8173489E-04
   13.76000     -9.2618784E-04
   13.78000     -9.6950209E-04
   13.80000     -1.0112179E-03
   13.82000     -1.0508461E-03
   13.84000     -1.0878675E-03
   13.86000     -1.1217378E-03
   13.88000     -1.1518927E-03
   13.90000     -1.1777574E-03
   13.92000     -1.1987539E-03
   13.94000     -1.2143082E-03
   13.96000     -1.2238541E-03
   13.98000     -1.2268377E-03
   14.00000     -1.2227222E-03
   14.02000     -1.2109970E-03
   14.04000     -1.1911889E-03
   14.06000     -1.1628746E-03
   14.08000     -1.1256915E-03
   14.10000     -1.0793431E-03
   14.12000     -1.0236037E-03
   14.14000     -9.5832103E-04
   14.16000     -8.8342075E-04
   14.18000     -7.9891447E-04
   14.20000     -7.0490956E-04
   14.22000     -6.0161744E-04
   14.24000     -4.8935803E-04
   14.26000     -3.6855802E-04
   14.28000     -2.3974545E-04
   14.30000     -1.0354364E-04
   14.32000      3.9332634E-05
   14.34000      1.8807739E-04
   14.36000      3.4179291E-04
   14.38000      4.9949205E-04
   14.40000      6.6010666E-04
   14.42000      8.2250230E-04
   14.44000      9.8549644E-04
   14.46000      1.1478749E-03
   14.48000      1.3084038E-03
   14.50000      1.4658367E-03
   14.52000      1.6189204E-03
   14.54000      1.7664060E-03
   14.56000      1.9070659E-03
   14.58000      2.0397154E-03
   14.60000      2.1632365E-03
   14.62000      2.2765936E-03
   14.64000      2.3788414E-03
   14.66000      2.4691275E-03
   14.68000      2.5466934E-03
   14.70000      2.6108834E-03
   14.72000      2.6611579E-03
   14.74000      2.6971118E-03
   14.76000      2.7184866E-03
   14.78000      2.7251716E-03
   14.80000      2.7171958E-03
   14.82000      2.6947157E-03
   14.84000      2.6580065E-03
   14.86000      2.6074590E-03
   14.88000      2.5435844E-03
   14.90000      2.4670181E-03
   14.92000      2.3785152E-03
   14.94000      2.2789380E-03
   14.96000      2.1692321E-03
   14.98000      2.0504042E-03
   15.00000      1.9235060E-03
   15.02000      1.7896265E-03
   15.04000      1.6498907E-03
   15.06000      1.5054543E-03
   15.08000      1.3574926E-03
   15.10000      1.2071806E-03
   15.12000      1.0556692E-03
   15.14000      9.0406672E-04
   15.16000      7.5342710E-04
   15.18000      6.0474733E-04
   15.20000      4.5896869E-04
   15.22000      3.1697645E-04
   15.24000      1.7959476E-04
   15.26000      4.7574958E-05
   15.28000     -7.8419391E-05
   15.30000     -1.9782379E-04
   15.32000     -3.1017631E-04
   15.34000     -4.1511125E-04
   15.36000     -5.1234610E-04
   15.38000     -6.0166855E-04
   15.40000     -6.8293104E-04
   15.42000     -7.5605453E-04
   15.44000     -8.2103931E-04
   15.46000     -8.7797176E-04
   15.48000     -9.2702179E-04
   15.50000     -9.6842548E-04
   15.52000     -1.0024615E-03
   15.54000     -1.0294318E-03
   15.56000     -1.0496554E-03
   15.58000     -1.0634765E-03
   15.60000     -1.0712785E-03
   15.62000     -1.0734884E-03
   15.64000     -1.0705665E-03
   15.66000     -1.0629814E-03
   15.68000     -1.0511840E-03
   15.70000     -1.0355957E-03
   15.72000     -1.0166143E-03
   15.74000     -9.9463400E-04
   15.76000     -9.7005995E-04
   15.78000     -9.4330678E-04
   15.80000     -9.1478002E-04
   15.82000     -8.8485098E-04
   15.84000     -8.5384119E-04
   15.86000     -8.2202640E-04
   15.88000     -7.8965502E-04
   15.90000     -7.5696834E-04
   15.92000     -7.2420778E-04
   15.94000     -6.9160567E-04
   15.96000     -6.5936812E-04
   15.98000     -6.2766089E-04
   16.00000     -5.9660943E-04
   16.02000     -5.6631042E-04
   16.04000     -5.3684635E-04
   16.06000     -5.0829386E-04
   16.08000     -4.8072252E-04
   16.10000     -4.5418879E-04
   16.12000     -4.2873152E-04
   16.14000     -4.0437290E-04
   16.16000     -3.8112208E-04
   16.18000     -3.5897768E-04
   16.20000     -3.3792722E-04
   16.22000     -3.1794628E-04
   16.24000     -2.9900204E-04
   16.26000     -2.8106192E-04
   16.28000     -2.6410166E-04
   16.30000     -2.4810544E-04
   16.32000     -2.3305515E-04
   16.34000     -2.1891553E-04
   16.36000     -2.0562764E-04
   16.38000     -1.9311867E-04
   16.40000     -1.8132434E-04
   16.42000     -1.7020878E-04
   16.44000     -1.5976622E-04
   16.46000     -1.5000069E-04
   16.48000     -1.4089623E-04
   16.50000     -1.3239941E-04
   16.52000     -1.2442860E-04
   16.54000     -1.1690598E-04
   16.56000     -1.0979033E-04
   16.58000     -1.0308655E-04
   16.60000     -9.6823263E-05
   16.62000     -9.1013571E-05
   16.64000     -8.5626620E-05
   16.66000     -8.0591402E-05
   16.68000     -7.5830729E-05
   16.70000     -7.1301132E-05
   16.72000     -6.7009503E-05
   16.74000     -6.2994455E-05
   16.76000     -5.9286256E-05
   16.78000     -5.5875007E-05
   16.80000     -5.2709969E-05
   16.82000     -4.9729115E-05
   16.84000     -4.6895559E-05
   16.86000     -4.4213321E-05
   16.88000     -4.1712341E-05
   16.90000     -3.9416711E-05
   16.92000     -3.7322021E-05