  -2.400000      0.0000000E+00
  -2.380000      0.0000000E+00
  -2.360000      0.0000000E+00
  -2.340000      0.0000000E+00
  -2.320000      0.0000000E+00
  -2.300000      0.0000000E+00
  -2.280000      0.0000000E+00
  -2.260000      0.0000000E+00
  -2.240000      0.0000000E+00
  -2.220000      0.0000000E+00
  -2.200000      0.0000000E+00
  -2.180000      0.0000000E+00
  -2.160000      0.0000000E+00
  -2.140000      0.0000000E+00
  -2.120000      0.0000000E+00
  -2.100000      0.0000000E+00
  -2.080000      0.0000000E+00
  -2.060000      0.0000000E+00
  -2.040000      0.0000000E+00
  -2.020000      0.0000000E+00
  -2.000000      0.0000000E+00
  -1.980000      0.0000000E+00
  -1.960000      0.0000000E+00
  -1.940000      0.0000000E+00
  -1.920000      0.0000000E+00
  -1.900000      0.0000000E+00
  -1.880000      0.0000000E+00
  -1.860000      0.0000000E+00
  -1.840000      0.0000000E+00
  -1.820000      0.0000000E+00
  -1.800000      0.0000000E+00
  -1.780000      0.0000000E+00
  -1.760000      0.0000000E+00
  -1.740000      0.0000000E+00
  -1.720000      0.0000000E+00
  -1.700000      0.0000000E+00
  -1.680000      0.0000000E+00
  -1.660000      0.0000000E+00
  -1.640000      0.0000000E+00
  -1.620000      0.0000000E+00
  -1.600000      0.0000000E+00
  -1.580000      0.0000000E+00
  -1.560000      0.0000000E+00
  -1.540000      0.0000000E+00
  -1.520000      0.0000000E+00
  -1.500000      0.0000000E+00
  -1.480000      0.0000000E+00
  -1.460000      0.0000000E+00
  -1.440000      0.0000000E+00
  -1.420000      0.0000000E+00
  -1.400000      0.0000000E+00
  -1.380000      0.0000000E+00
  -1.360000      0.0000000E+00
  -1.340000      0.0000000E+00
  -1.320000      0.0000000E+00
  -1.300000      0.0000000E+00
  -1.280000      0.0000000E+00
  -1.260000      0.0000000E+00
  -1.240000      0.0000000E+00
  -1.220000      0.0000000E+00
  -1.200000      0.0000000E+00
  -1.180000      0.0000000E+00
  -1.160000      0.0000000E+00
  -1.140000      0.0000000E+00
  -1.120000      0.0000000E+00
  -1.100000      0.0000000E+00
  -1.080000      0.0000000E+00
  -1.060000      0.0000000E+00
  -1.040000      0.0000000E+00
  -1.020000      0.0000000E+00
  -1.000000      0.0000000E+00
 -0.9800000      0.0000000E+00
 -0.9600000      0.0000000E+00
 -0.9400000      0.0000000E+00
 -0.9200000      0.0000000E+00
 -0.9000000      0.0000000E+00
 -0.8800000      0.0000000E+00
 -0.8600000      0.0000000E+00
 -0.8400000      0.0000000E+00
 -0.8200000      0.0000000E+00
 -0.8000000      0.0000000E+00
 -0.7800000      0.0000000E+00
 -0.7600000      0.0000000E+00
 -0.7400000      0.0000000E+00
 -0.7200000      0.0000000E+00
 -0.7000000      0.0000000E+00
 -0.6800000      0.0000000E+00
 -0.6600000      0.0000000E+00
 -0.6400000      0.0000000E+00
 -0.6200000      0.0000000E+00
 -0.6000000      0.0000000E+00
 -0.5800000      0.0000000E+00
 -0.5600000      0.0000000E+00
 -0.5400000      0.0000000E+00
 -0.5200000      0.0000000E+00
 -0.5000000      0.0000000E+00
 -0.4800000      0.0000000E+00
 -0.4600000      0.0000000E+00
 -0.4400000      0.0000000E+00
 -0.4200000      0.0000000E+00
 -0.4000000      0.0000000E+00
 -0.3800000      0.0000000E+00
 -0.3600000      0.0000000E+00
 -0.3400000      0.0000000E+00
 -0.3200000      0.0000000E+00
 -0.3000000      0.0000000E+00
 -0.2800000      0.0000000E+00
 -0.2600000      0.0000000E+00
 -0.2400000      0.0000000E+00
 -0.2200000      0.0000000E+00
 -0.2000000      0.0000000E+00
 -0.1800000      0.0000000E+00
 -0.1600000      0.0000000E+00
 -0.1400000      0.0000000E+00
 -0.1200000      0.0000000E+00
 -0.1000000      0.0000000E+00
 -7.9999998E-02  0.0000000E+00
 -5.9999999E-02  0.0000000E+00
 -3.9999999E-02  0.0000000E+00
 -2.0000000E-02  0.0000000E+00
  0.0000000E+00  0.0000000E+00
  2.0000000E-02  0.0000000E+00
  3.9999999E-02  0.0000000E+00
  5.9999999E-02  0.0000000E+00
  7.9999998E-02  0.0000000E+00
  0.1000000      0.0000000E+00
  0.1200000      0.0000000E+00
  0.1400000      0.0000000E+00
  0.1600000      0.0000000E+00
  0.1800000      0.0000000E+00
  0.2000000      0.0000000E+00
  0.2200000      0.0000000E+00
  0.2400000      0.0000000E+00
  0.2600000      0.0000000E+00
  0.2800000      0.0000000E+00
  0.3000000      0.0000000E+00
  0.3200000      0.0000000E+00
  0.3400000      0.0000000E+00
  0.3600000      0.0000000E+00
  0.3800000      0.0000000E+00
  0.4000000      0.0000000E+00
  0.4200000      0.0000000E+00
  0.4400000      0.0000000E+00
  0.4600000      0.0000000E+00
  0.4800000      0.0000000E+00
  0.5000000      0.0000000E+00
  0.5200000      0.0000000E+00
  0.5400000      0.0000000E+00
  0.5600000      0.0000000E+00
  0.5800000      0.0000000E+00
  0.6000000      0.0000000E+00
  0.6200000      0.0000000E+00
  0.6400000      0.0000000E+00
  0.6600000      0.0000000E+00
  0.6800000      0.0000000E+00
  0.7000000      0.0000000E+00
  0.7200000      0.0000000E+00
  0.7400000      0.0000000E+00
  0.7600000      0.0000000E+00
  0.7800000      0.0000000E+00
  0.8000000      0.0000000E+00
  0.8200000      0.0000000E+00
  0.8400000      0.0000000E+00
  0.8600000      0.0000000E+00
  0.8800000      0.0000000E+00
  0.9000000      0.0000000E+00
  0.9200000      0.0000000E+00
  0.9400000      0.0000000E+00
  0.9600000      0.0000000E+00
  0.9800000      0.0000000E+00
   1.000000      0.0000000E+00
   1.020000      0.0000000E+00
   1.040000      0.0000000E+00
   1.060000      0.0000000E+00
   1.080000      0.0000000E+00
   1.100000      0.0000000E+00
   1.120000      0.0000000E+00
   1.140000      0.0000000E+00
   1.160000      0.0000000E+00
   1.180000      0.0000000E+00
   1.200000      0.0000000E+00
   1.220000      0.0000000E+00
   1.240000      0.0000000E+00
   1.260000      0.0000000E+00
   1.280000      0.0000000E+00
   1.300000      0.0000000E+00
   1.320000      0.0000000E+00
   1.340000      0.0000000E+00
   1.360000      0.0000000E+00
   1.380000      0.0000000E+00
   1.400000      0.0000000E+00
   1.420000      0.0000000E+00
   1.440000      0.0000000E+00
   1.460000      0.0000000E+00
   1.480000      0.0000000E+00
   1.500000      0.0000000E+00
   1.520000      0.0000000E+00
   1.540000      0.0000000E+00
   1.560000      0.0000000E+00
   1.580000      0.0000000E+00
   1.600000      0.0000000E+00
   1.620000      0.0000000E+00
   1.640000      0.0000000E+00
   1.660000      0.0000000E+00
   1.680000      0.0000000E+00
   1.700000      0.0000000E+00
   1.720000      0.0000000E+00
   1.740000      0.0000000E+00
   1.760000      0.0000000E+00
   1.780000      0.0000000E+00
   1.800000      0.0000000E+00
   1.820000      0.0000000E+00
   1.840000      0.0000000E+00
   1.860000      0.0000000E+00
   1.880000      0.0000000E+00
   1.900000      0.0000000E+00
   1.920000      0.0000000E+00
   1.940000      0.0000000E+00
   1.960000      0.0000000E+00
   1.980000      0.0000000E+00
   2.000000      0.0000000E+00
   2.020000      0.0000000E+00
   2.040000      0.0000000E+00
   2.060000      0.0000000E+00
   2.080000      0.0000000E+00
   2.100000      0.0000000E+00
   2.120000      0.0000000E+00
   2.140000      0.0000000E+00
   2.160000      0.0000000E+00
   2.180000      0.0000000E+00
   2.200000      0.0000000E+00
   2.220000      0.0000000E+00
   2.240000      0.0000000E+00
   2.260000      0.0000000E+00
   2.280000      0.0000000E+00
   2.300000      0.0000000E+00
   2.320000      0.0000000E+00
   2.340000      0.0000000E+00
   2.360000      0.0000000E+00
   2.380000      0.0000000E+00
   2.400000      0.0000000E+00
   2.420000      0.0000000E+00
   2.440000      0.0000000E+00
   2.460000      0.0000000E+00
   2.480000      0.0000000E+00
   2.500000      0.0000000E+00
   2.520000      0.0000000E+00
   2.540000      0.0000000E+00
   2.560000      0.0000000E+00
   2.580000      0.0000000E+00
   2.600000      0.0000000E+00
   2.620000      0.0000000E+00
   2.640000      0.0000000E+00
   2.660000      0.0000000E+00
   2.680000      0.0000000E+00
   2.700000      0.0000000E+00
   2.720000      0.0000000E+00
   2.740000      0.0000000E+00
   2.760000      0.0000000E+00
   2.780000      0.0000000E+00
   2.800000      0.0000000E+00
   2.820000      0.0000000E+00
   2.840000      0.0000000E+00
   2.860000      0.0000000E+00
   2.880000      0.0000000E+00
   2.900000      0.0000000E+00
   2.920000      0.0000000E+00
   2.940000      0.0000000E+00
   2.960000      0.0000000E+00
   2.980000      0.0000000E+00
   3.000000      0.0000000E+00
   3.020000      0.0000000E+00
   3.040000      0.0000000E+00
   3.060000      0.0000000E+00
   3.080000      0.0000000E+00
   3.100000      0.0000000E+00
   3.120000      0.0000000E+00
   3.140000      0.0000000E+00
   3.160000      0.0000000E+00
   3.180000      0.0000000E+00
   3.200000      1.2006859E-38
   3.220000      2.0065406E-38
   3.240000      2.2371090E-38
   3.260000      2.0483529E-38
   3.280000      0.0000000E+00
   3.300000      0.0000000E+00
   3.320000      3.3562592E-38
   3.340000      5.5894539E-38
   3.360000      0.0000000E+00
   3.380000     -1.5068631E-37
   3.400000     -3.1179519E-37
   3.420000     -2.4860546E-37
   3.440000      3.0009964E-37
   3.460000      9.3640207E-37
   3.480000      8.0384973E-37
   3.500000     -6.5213153E-37
   3.520000     -2.2579631E-36
   3.540000     -1.6305249E-36
   3.560000      2.4278399E-36
   3.580000      6.9726430E-36
   3.600000      5.7574223E-36
   3.620000     -3.7010702E-36
   3.640000     -1.5352553E-35
   3.660000     -1.5399824E-35
   3.680000      4.1354101E-36
   3.700000      3.2656565E-35
   3.720000      4.1378386E-35
   3.740000      7.5666853E-36
   3.760000     -5.5951689E-35
   3.780000     -9.6977836E-35
   3.800000     -5.7200336E-35
   3.820000      6.8089718E-35
   3.840000      1.9365971E-34
   3.860000      1.8526001E-34
   3.880000     -2.5955593E-35
   3.900000     -3.3275274E-34
   3.920000     -4.6462957E-34
   3.940000     -1.8095593E-34
   3.960000      4.5729821E-34
   3.980000      9.7805566E-34
   4.000000      7.6542999E-34
   4.020000     -3.7113146E-34
   4.040000     -1.7558793E-33
   4.060000     -2.0743345E-33
   4.080000     -4.0184068E-34
   4.100000      2.6092138E-33
   4.120000      4.5480813E-33
   4.140000      2.8112087E-33
   4.160000     -2.7808012E-33
   4.180000     -8.4903533E-33
   4.200000     -8.4591211E-33
   4.220000      3.2863208E-34
   4.240000      1.3411507E-32
   4.260000      1.9541311E-32
   4.280000      8.7710892E-33
   4.300000     -1.6592175E-32
   4.320000     -3.8026128E-32
   4.340000     -3.1522588E-32
   4.360000      1.0532459E-32
   4.380000      6.3189639E-32
   4.400000      7.8016373E-32
   4.420000      2.0847115E-32
   4.440000     -8.6126573E-32
   4.460000     -1.5888332E-31
   4.480000     -1.0653082E-31
   4.500000      7.9544298E-32
   4.520000      2.7645335E-31
   4.540000      2.9022598E-31
   4.560000      1.7875231E-32
   4.580000     -4.0421743E-31
   4.600000     -6.2274902E-31
   4.620000     -3.2014046E-31
   4.640000      4.4811504E-31
   4.660000      1.1319137E-30
   4.680000      1.0056978E-30
   4.700000     -1.8542576E-31
   4.720000     -1.7492451E-30
   4.740000     -2.2977066E-30
   4.760000     -8.1221610E-31
   4.780000      2.1676994E-30
   4.800000      4.3651040E-30
   4.820000      3.2380528E-30
   4.840000     -1.6115616E-30
   4.860000     -7.0680809E-30
   4.880000     -8.0051579E-30
   4.900000     -1.4622334E-30
   4.920000      9.4530999E-30
   4.940000      1.5929126E-29
   4.960000      9.6172500E-30
   4.980000     -8.9285277E-30
   5.000000     -2.6875862E-29
   5.020000     -2.6355289E-29
   5.040000      1.7856586E-31
   5.060000      3.8053427E-29
   5.080000      5.5148432E-29
   5.100000      2.5828887E-29
   5.120000     -4.1199102E-29
   5.140000     -9.6726768E-29
   5.160000     -8.1837674E-29
   5.180000      1.8776058E-29
   5.200000      1.4352554E-28
   5.220000      1.8154389E-28
   5.240000      5.9791392E-29
   5.260000     -1.7032779E-28
   5.280000     -3.3122598E-28
   5.300000     -2.3901277E-28
   5.320000      1.2124944E-28
   5.340000      5.1200963E-28
   5.360000      5.6962917E-28
   5.380000      1.0375484E-28
   5.400000     -6.4946056E-28
   5.420000     -1.0830374E-27
   5.440000     -6.5382510E-28
   5.460000      5.7094785E-28
   5.480000      1.7360350E-27
   5.500000      1.7057045E-27
   5.520000      3.9344820E-29
   5.540000     -2.3158235E-27
   5.560000     -3.3876969E-27
   5.580000     -1.6606651E-27
   5.600000      2.3061518E-27
   5.620000      5.6132865E-27
   5.640000      4.8780743E-27
   5.660000     -7.4265216E-28
   5.680000     -7.7922971E-27
   5.700000     -1.0161639E-26
   5.720000     -3.8624124E-27
   5.740000      8.4192251E-27
   5.760000      1.7371403E-26
   5.780000      1.3363650E-26
   5.800000     -4.6245091E-27
   5.820000     -2.4891255E-26
   5.840000     -2.9334249E-26
   5.860000     -8.0609482E-27
   5.880000      2.8405988E-26
   5.900000      5.1607361E-26
   5.920000      3.5241353E-26
   5.940000     -1.9605277E-26
   5.960000     -7.5768716E-26
   5.980000     -8.1763935E-26
   6.000000     -1.4443952E-26
   6.020000      8.9708510E-26
   6.040000      1.4757019E-25
   6.060000      8.9913762E-26
   6.080000     -7.0072431E-26
   6.100000     -2.2071796E-25
   6.120000     -2.2087452E-25
   6.140000     -1.9339167E-26
   6.160000      2.6794284E-25
   6.180000      4.0779390E-25
   6.200000      2.2353254E-25
   6.220000     -2.2517556E-25
   6.240000     -6.1845093E-25
   6.260000     -5.8133167E-25
   6.280000     -6.1348865E-27
   6.300000      7.6273038E-25
   6.320000      1.0937932E-24
   6.340000      5.4669052E-25
   6.360000     -6.6872942E-25
   6.380000     -1.6734168E-24
   6.400000     -1.4974390E-24
   6.420000      7.6503983E-26
   6.440000      2.0801523E-24
   6.460000      2.8555270E-24
   6.480000      1.3245745E-24
   6.500000     -1.8653768E-24
   6.520000     -4.3849705E-24
   6.540000     -3.7829123E-24
   6.560000      3.6571816E-25
   6.580000      5.4608537E-24
   6.600000      7.2689493E-24
   6.620000      3.1895887E-24
   6.640000     -4.9432888E-24
   6.660000     -1.1154793E-23
   6.680000     -9.3820221E-24
   6.700000      1.1884371E-24
   6.720000      1.3845959E-23
   6.740000      1.8060467E-23
   6.760000      7.6466654E-24
   6.780000     -1.2518412E-23
   6.800000     -2.7571007E-23
   6.820000     -2.2836690E-23
   6.840000      3.2306694E-24
   6.860000      3.3933849E-23
   6.880000      4.3764829E-23
   6.900000      1.8232906E-23
   6.920000     -3.0361458E-23
   6.940000     -6.6158281E-23
   6.960000     -5.4452575E-23
   6.980000      7.7431084E-24
   7.000000      8.0353397E-23
   7.020000      1.0327952E-22
   7.040000      4.3137956E-23
   7.060000     -7.0539090E-23
   7.080000     -1.5394586E-22
   7.100000     -1.2700673E-22
   7.120000      1.6403274E-23
   7.140000      1.8360682E-22
   7.160000      2.3708067E-22
   7.180000      1.0120747E-22
   7.200000     -1.5659034E-22
   7.220000     -3.4688673E-22
   7.240000     -2.8955845E-22
   7.260000      2.9440810E-23
   7.280000      4.0402712E-22
   7.300000      5.2885275E-22
   7.320000      2.3526879E-22
   7.340000     -3.3091210E-22
   7.360000     -7.5608302E-22
   7.380000     -6.4509273E-22
   7.400000      3.8548793E-23
   7.420000      8.5499264E-22
   7.440000      1.1463445E-21
   7.460000      5.4138295E-22
   7.480000     -6.6272217E-22
   7.500000     -1.5937777E-21
   7.520000     -1.4052086E-21
   7.540000      5.2519807E-24
   7.560000      1.7375579E-21
   7.580000      2.4150007E-21
   7.600000      1.2301203E-21
   7.620000     -1.2497736E-21
   7.640000     -3.2473877E-21
   7.660000     -2.9897098E-21
   7.680000     -1.8904797E-22
   7.700000      3.3882517E-21
   7.720000      4.9410475E-21
   7.740000      2.7378164E-21
   7.760000     -2.2112376E-21
   7.780000     -6.3998960E-21
   7.800000     -6.1979682E-21
   7.820000     -8.3407104E-22
   7.840000      6.3569424E-21
   7.860000      9.8244799E-21
   7.880000      5.9255762E-21
   7.900000     -3.6652672E-21
   7.920000     -1.2230848E-20
   7.940000     -1.2509033E-20
   7.960000     -2.5690523E-21
   7.980000      1.1504455E-20
   8.000000      1.8989220E-20
   8.020000      1.2412116E-20
   8.040000     -5.6470736E-21
   8.060000     -2.2663301E-20
   8.080000     -2.4482368E-20
   8.100000     -6.6301450E-21
   8.120000      2.0107557E-20
   8.140000      3.5559726E-20
   8.160000      2.4908442E-20
   8.180000     -8.1143760E-21
   8.200000     -4.0732836E-20
   8.220000     -4.6188602E-20
   8.240000     -1.4941236E-20
   8.260000      3.4269605E-20
   8.280000      6.4516992E-20
   8.300000      4.7601507E-20
   8.320000     -1.1217889E-20
   8.340000     -7.1424183E-20
   8.360000     -8.4067749E-20
   8.380000     -3.0374880E-20
   8.400000      5.7478765E-20
   8.420000      1.1371528E-19
   8.440000      8.6950732E-20
   8.460000     -1.5203420E-20
   8.480000     -1.2219360E-19
   8.500000     -1.4754149E-19
   8.520000     -5.6962455E-20
   8.540000      9.4791661E-20
   8.560000      1.9393712E-19
   8.580000      1.5107824E-19
   8.600000     -2.1607945E-20
   8.620000     -2.0386514E-19
   8.640000     -2.4844284E-19
   8.660000     -9.7378481E-20
   8.680000      1.5638125E-19
   8.700000      3.2137639E-19
   8.720000      2.4909699E-19
   8.740000     -3.7658011E-20
   8.760000     -3.3701135E-19
   8.780000     -4.0596122E-19
   8.800000     -1.5327769E-19
   8.820000      2.6263289E-19
   8.840000      5.2579198E-19
   8.860000      3.9793850E-19
   8.880000     -7.4452821E-20
   8.900000     -5.5565609E-19
   8.920000     -6.5283105E-19
   8.940000     -2.2971542E-19
   8.960000      4.4345484E-19
   8.980000      8.5133222E-19
   9.000000      6.2010541E-19
   9.020000     -1.5445567E-19
   9.040000     -9.1571892E-19
   9.060000     -1.0349368E-18
   9.080000     -3.1770224E-19
   9.100000      7.7034327E-19
   9.120000      1.3866455E-18
   9.140000      9.4849275E-19
   9.160000     -3.4605543E-19
   9.180000     -1.5595569E-18
   9.200000     -1.6725256E-18
   9.220000     -4.1254139E-19
   9.240000      1.4001841E-18
   9.260000      2.3527889E-18
   9.280000      1.5102526E-18
   9.300000     -7.3218445E-19
   9.320000     -2.7527990E-18
   9.340000     -2.8369034E-18
   9.360000     -5.7898424E-19
   9.380000      2.5565688E-18
   9.400000      4.1222215E-18
   9.420000      2.5401999E-18
   9.440000     -1.4383042E-18
   9.460000     -4.9403991E-18
   9.480000     -4.9693314E-18
   9.500000     -8.6381117E-19
   9.520000      4.7282248E-18
   9.540000      7.4347068E-18
   9.560000      4.4616915E-18
   9.580000     -2.7986115E-18
   9.600000     -9.1358666E-18
   9.620000     -9.1143831E-18
   9.640000     -1.5261111E-18
   9.660000      8.8098507E-18
   9.680000      1.3882705E-17
   9.700000      8.4921943E-18
   9.720000     -4.9336468E-18
   9.740000     -1.6893994E-17
   9.760000     -1.7292308E-17
   9.780000     -3.6150779E-18
   9.800000      1.5589580E-17
   9.820000      2.5658767E-17
   9.840000      1.6683464E-17
   9.860000     -7.5193125E-18
   9.880000     -3.0019387E-17
   9.900000     -3.2205301E-17
   9.920000     -8.6433310E-18
   9.940000      2.6147321E-17
   9.960000      4.5955782E-17
   9.980000      3.2094945E-17
   10.00000     -1.0139656E-17
   10.02000     -5.1602825E-17
   10.04000     -5.8753190E-17
   10.06000     -1.9955669E-17
   10.08000      4.1467950E-17
   10.10000      8.0158281E-17
   10.12000      6.1456614E-17
   10.14000     -9.1369245E-18
   10.16000     -8.3925877E-17
   10.18000     -1.0434091E-16
   10.20000     -4.5781502E-17
   10.22000      5.7690507E-17
   10.24000      1.3146797E-16
   10.26000      1.1328445E-16
   10.28000      4.0551003E-18
   10.30000     -1.2379380E-16
   10.32000     -1.7307228E-16
   10.34000     -9.4509938E-17
   10.36000      6.8164129E-17
   10.38000      1.9979613E-16
   10.40000      1.9400706E-16
   10.42000      3.7081570E-17
   10.44000     -1.6932668E-16
   10.46000     -2.7210857E-16
   10.48000     -1.7853430E-16
   10.50000      6.4602118E-17
   10.52000      2.8964162E-16
   10.54000      3.2196188E-16
   10.56000      1.1293234E-16
   10.58000     -2.0779332E-16
   10.60000     -4.1005169E-16
   10.62000     -3.2659526E-16
   10.64000      1.2607046E-17
   10.66000      3.8061870E-16
   10.68000      5.0318008E-16
   10.70000      2.6087540E-16
   10.72000     -2.0344673E-16
   10.74000     -5.6366686E-16
   10.76000     -5.3657441E-16
   10.78000     -1.0058545E-16
   10.80000      4.5895819E-16
   10.82000      7.3133873E-16
   10.84000      4.7714319E-16
   10.86000     -1.7095002E-16
   10.88000     -7.6583986E-16
   10.90000     -8.4828740E-16
   10.92000     -2.9375179E-16
   10.94000      5.5334640E-16
   10.96000      1.0848511E-15
   10.98000      8.5883789E-16
   11.00000     -4.4569206E-17
   11.02000     -1.0208334E-15
   11.04000     -1.3374614E-15
   11.06000     -6.7679198E-16
   11.08000      5.7085934E-16
   11.10000      1.5194072E-15
   11.12000      1.4061261E-15
   11.14000      1.9409715E-16
   11.16000     -1.3082900E-15
   11.18000     -1.9661079E-15
   11.20000     -1.1574580E-15
   11.22000      6.7486350E-16
   11.24000      2.2271086E-15
   11.26000      2.2372599E-15
   11.28000      4.7799181E-16
   11.30000     -1.9227498E-15
   11.32000     -3.1761681E-15
   11.34000     -2.1389117E-15
   11.36000      7.0537881E-16
   11.38000      3.4002552E-15
   11.40000      3.8401725E-15
   11.42000      1.3884169E-15
   11.44000     -2.4332586E-15
   11.46000     -4.8438274E-15
   11.48000     -3.7993853E-15
   11.50000      3.2407282E-16
   11.52000      4.7103909E-15
   11.54000      5.9742504E-15
   11.56000      2.7129838E-15
   11.58000     -3.1501454E-15
   11.60000     -7.4196410E-15
   11.62000     -6.5635444E-15
   11.64000     -5.0789985E-16
   11.66000      6.8639217E-15
   11.68000      1.0158906E-14
   11.70000      6.3557892E-15
   11.72000     -2.6442442E-15
   11.74000     -1.0857732E-14
   11.76000     -1.2186726E-14
   11.78000     -4.8956946E-15
   11.80000      6.6545958E-15
   11.82000      1.4557520E-14
   11.84000      1.2743090E-14
   11.86000      1.5504969E-15
   11.88000     -1.1882522E-14
   11.90000     -1.8069700E-14
   11.92000     -1.1725874E-14
   11.94000      4.0354259E-15
   11.96000      1.9020443E-14
   11.98000      2.2369525E-14
   12.00000      1.0090710E-14
   12.02000     -1.1366150E-14
   12.04000     -2.8322078E-14
   12.06000     -2.8374218E-14
   12.08000     -9.0162795E-15
   12.10000      1.9393587E-14
   12.12000      3.8951525E-14
   12.14000      3.5273965E-14
   12.16000      7.6727726E-15
   12.18000     -2.8472640E-14
   12.20000     -4.9847042E-14
   12.22000     -3.9929882E-14
   12.24000     -1.3657986E-15
   12.26000      4.2878116E-14
   12.28000      6.2287821E-14
   12.30000      3.9078434E-14
   12.32000     -1.6921015E-14
   12.34000     -7.0353228E-14
   12.36000     -8.1159512E-14
   12.38000     -3.2808629E-14
   12.40000      5.1057466E-14
   12.42000      1.1597339E-13
   12.44000      1.1033844E-13
   12.46000      2.3619719E-14
   12.48000     -9.8014248E-14
   12.50000     -1.7442876E-13
   12.52000     -1.4323387E-13
   12.54000     -7.9769633E-15
   12.56000      1.5307142E-13
   12.58000      2.3087416E-13
   12.60000      1.5918598E-13
   12.62000     -3.1155678E-14
   12.64000     -2.2004261E-13
   12.66000     -2.7211637E-13
   12.68000     -1.3302402E-13
   12.70000      1.1932608E-13
   12.72000      3.1298014E-13
   12.74000      2.9498141E-13
   12.76000      4.7273437E-14
   12.78000     -2.7941383E-13
   12.80000     -4.5094798E-13
   12.82000     -3.0968804E-13
   12.84000      9.7058626E-14
   12.86000      5.1854739E-13
   12.88000      6.5031574E-13
   12.90000      3.4544343E-13
   12.92000     -2.5609517E-13
   12.94000     -7.8448782E-13
   12.96000     -8.6859551E-13
   12.98000     -3.9624169E-13
   13.00000      3.7460779E-13
   13.02000      9.5198730E-13
   13.04000      9.2813571E-13
   13.06000      2.7652376E-13
   13.08000     -5.8636386E-13
   13.10000     -1.0481477E-12
   13.12000     -7.1915195E-13
   13.14000      2.5546416E-13
   13.16000      1.2284605E-12
   13.18000      1.4512928E-12
   13.20000      6.0515042E-13
   13.22000     -9.0188740E-13
   13.24000     -2.1187045E-12
   13.26000     -2.1525574E-12
   13.28000     -8.1570086E-13
   13.30000      1.1407459E-12
   13.32000      2.4327879E-12
   13.34000      2.0894152E-12
   13.36000      1.9367828E-13
   13.38000     -2.0282714E-12
   13.40000     -2.9268506E-12
   13.42000     -1.5552192E-12
   13.44000      1.5486037E-12
   13.46000      4.5308232E-12
   13.48000      5.3483593E-12
   13.50000      3.1712185E-12
   13.52000     -9.0908428E-13
   13.54000     -4.4596471E-12
   13.56000     -5.3126466E-12
   13.58000     -3.1559404E-12
   13.60000      5.8304198E-14
   13.62000      1.3416996E-12
   13.64000     -1.1500592E-12
   13.66000     -6.4607764E-12
   13.68000     -1.0996302E-11
   13.70000     -1.0651337E-11
   13.72000     -3.6396177E-12
   13.74000      7.9044358E-12
   13.76000      1.8840098E-11
   13.78000      2.4085440E-11
   13.80000      2.1885344E-11
   13.82000      1.4979365E-11
   13.84000      8.6372697E-12
   13.86000      6.6900981E-12
   13.88000      8.2666330E-12
   13.90000      7.7373030E-12
   13.92000     -1.6766740E-12
   13.94000     -2.2774605E-11
   13.96000     -5.1218019E-11
   13.98000     -7.6817497E-11
   14.00000     -8.8852058E-11
   14.02000     -8.2129373E-11
   14.04000     -5.9685527E-11
   14.06000     -3.0058685E-11
   14.08000     -7.6584550E-13
   14.10000      2.7517988E-11
   14.12000      6.1659282E-11
   14.14000      1.1047792E-10
   14.16000      1.7611702E-10
   14.18000      2.4817309E-10
   14.20000      3.0511765E-10
   14.22000      3.2299408E-10
   14.24000      2.8644595E-10
   14.26000      1.9522710E-10
   14.28000      6.2022450E-11
   14.30000     -9.6839987E-11
   14.32000     -2.7116412E-10
   14.34000     -4.5977608E-10
   14.36000     -6.6358141E-10
   14.38000     -8.7278312E-10
   14.40000     -1.0570741E-09
   14.42000     -1.1667661E-09
   14.44000     -1.1463547E-09
   14.46000     -9.5389852E-10
   14.48000     -5.7524080E-10
   14.50000     -2.4813958E-11
   14.52000      6.6673317E-10
   14.54000      1.4689133E-09
   14.56000      2.3593429E-09
   14.58000      3.3159391E-09
   14.60000      4.2967416E-09
   14.62000      5.2200799E-09
   14.64000      5.9592167E-09
   14.66000      6.3573675E-09
   14.68000      6.2558048E-09
   14.70000      5.5183298E-09
   14.72000      4.0363113E-09
   14.74000      1.7102120E-09
   14.76000     -1.5813334E-09
   14.78000     -6.0052701E-09
   14.80000     -1.1775780E-08
   14.82000     -1.9134719E-08
   14.84000     -2.8328548E-08
   14.86000     -3.9605695E-08
   14.88000     -5.3248531E-08
   14.90000     -6.9633401E-08
   14.92000     -8.9294097E-08
   14.94000     -1.1296149E-07
   14.96000     -1.4156753E-07
   14.98000     -1.7622772E-07
   15.00000     -2.1823327E-07
   15.02000     -2.6908228E-07
   15.04000     -3.3055693E-07
   15.06000     -4.0482459E-07
   15.08000     -4.9452649E-07
   15.10000     -6.0282656E-07
   15.12000     -7.3342306E-07
   15.14000     -8.9055550E-07
   15.16000     -1.0790536E-06
   15.18000     -1.3044519E-06
   15.20000     -1.5731597E-06
   15.22000     -1.8926420E-06
   15.24000     -2.2715674E-06
   15.26000     -2.7199053E-06
   15.28000     -3.2489984E-06
   15.30000     -3.8716653E-06
   15.32000     -4.6023733E-06
   15.34000     -5.4574925E-06
   15.36000     -6.4555843E-06
   15.38000     -7.6176607E-06
   15.40000     -8.9673795E-06
   15.42000     -1.0531162E-05
   15.44000     -1.2338302E-05
   15.46000     -1.4421109E-05
   15.48000     -1.6815146E-05
   15.50000     -1.9559495E-05
   15.52000     -2.2697019E-05
   15.54000     -2.6274531E-05
   15.56000     -3.0342819E-05
   15.58000     -3.4956614E-05
   15.60000     -4.0174495E-05
   15.62000     -4.6058802E-05
   15.64000     -5.2675619E-05
   15.66000     -6.0094757E-05
   15.68000     -6.8389556E-05
   15.70000     -7.7636541E-05
   15.72000     -8.7914814E-05
   15.74000     -9.9305355E-05
   15.76000     -1.1189021E-04
   15.78000     -1.2575164E-04
   15.80000     -1.4097133E-04
   15.82000     -1.5762942E-04
   15.84000     -1.7580322E-04
   15.86000     -1.9556587E-04
   15.88000     -2.1698455E-04
   15.90000     -2.4011858E-04
   15.92000     -2.6501750E-04
   15.94000     -2.9171933E-04
   15.96000     -3.2024854E-04
   15.98000     -3.5061446E-04
   16.00000     -3.8280882E-04
   16.02000     -4.1680358E-04
   16.04000     -4.5254850E-04
   16.06000     -4.8996852E-04
   16.08000     -5.2896189E-04
   16.10000     -5.6939840E-04
   16.12000     -6.1111810E-04
   16.14000     -6.5393024E-04
   16.16000     -6.9761125E-04
   16.18000     -7.4190402E-04
   16.20000     -7.8651682E-04
   16.22000     -8.3112315E-04
   16.24000     -8.7536190E-04
   16.26000     -9.1883965E-04
   16.28000     -9.6113171E-04
   16.30000     -1.0017842E-03
   16.32000     -1.0403168E-03
   16.34000     -1.0762247E-03
   16.36000     -1.1089836E-03
   16.38000     -1.1380538E-03
   16.40000     -1.1628858E-03
   16.42000     -1.1829268E-03
   16.44000     -1.1976266E-03
   16.46000     -1.2064436E-03
   16.48000     -1.2088531E-03
   16.50000     -1.2043531E-03
   16.52000     -1.1924722E-03
   16.54000     -1.1727785E-03
   16.56000     -1.1448876E-03
   16.58000     -1.1084699E-03
   16.60000     -1.0632582E-03
   16.62000     -1.0090546E-03
   16.64000     -9.4573660E-04
   16.66000     -8.7326264E-04
   16.68000     -7.9167739E-04
   16.70000     -7.0111587E-04
   16.72000     -6.0180709E-04
   16.74000     -4.9407600E-04
   16.76000     -3.7834508E-04
   16.78000     -2.5513250E-04
   16.80000     -1.2505030E-04
   16.82000      1.1199278E-05
   16.84000      1.5282817E-04
   16.86000      2.9896776E-04
   16.88000      4.4867548E-04
   16.90000      6.0094357E-04
   16.92000      7.5470860E-04