  -2.400000      0.0000000E+00
  -2.380000      0.0000000E+00
  -2.360000      0.0000000E+00
  -2.340000      0.0000000E+00
  -2.320000      0.0000000E+00
  -2.300000      0.0000000E+00
  -2.280000      0.0000000E+00
  -2.260000      0.0000000E+00
  -2.240000      0.0000000E+00
  -2.220000      0.0000000E+00
  -2.200000      0.0000000E+00
  -2.180000      0.0000000E+00
  -2.160000      0.0000000E+00
  -2.140000      0.0000000E+00
  -2.120000      0.0000000E+00
  -2.100000     -5.1610480E-33
  -2.080000     -8.3357901E-32
  -2.060000     -5.3296599E-31
  -2.040000     -1.2194116E-30
  -2.020000      4.6764724E-30
  -2.000000      4.6189987E-29
  -1.980000      1.5771516E-28
  -1.960000      1.6897207E-28
  -1.940000     -8.1490545E-28
  -1.920000     -4.3971608E-27
  -1.900000     -9.3735927E-27
  -1.880000     -2.2282091E-27
  -1.860000      4.8487964E-26
  -1.840000      1.5815795E-25
  -1.820000      2.1557212E-25
  -1.800000     -1.3308473E-25
  -1.780000     -1.2993976E-24
  -1.760000     -2.8767963E-24
  -1.740000     -2.3565040E-24
  -1.720000      4.6286003E-24
  -1.700000      1.9486814E-23
  -1.680000      3.1201926E-23
  -1.660000      1.1250392E-23
  -1.640000     -6.9063302E-23
  -1.620000     -1.8886042E-22
  -1.600000     -2.2477517E-22
  -1.580000      2.3113531E-23
  -1.560000      6.4436617E-22
  -1.540000      1.3158506E-21
  -1.520000      1.1652985E-21
  -1.500000     -7.7776813E-22
  -1.480000     -4.3936324E-21
  -1.460000     -7.2041534E-21
  -1.440000     -4.5874019E-21
  -1.420000      7.0064217E-21
  -1.400000      2.4319231E-20
  -1.380000      3.3189788E-20
  -1.360000      1.3032786E-20
  -1.340000     -4.5668338E-20
  -1.320000     -1.1717514E-19
  -1.300000     -1.3141778E-19
  -1.280000     -8.4672179E-21
  -1.260000      2.5604270E-19
  -1.240000      5.0216786E-19
  -1.220000      4.2002670E-19
  -1.200000     -2.3542925E-19
  -1.180000     -1.2767614E-18
  -1.160000     -1.8581159E-18
  -1.140000     -8.2660515E-19
  -1.120000      2.1815003E-18
  -1.100000      5.5032930E-18
  -1.080000      5.4761561E-18
  -1.060000     -1.0433358E-18
  -1.040000     -1.2366238E-17
  -1.020000     -1.9490172E-17
  -1.000000     -1.0230141E-17
 -0.9800000      1.9037193E-17
 -0.9600000      5.1514426E-17
 -0.9400000      5.2310009E-17
 -0.9200000     -5.6656355E-18
 -0.9000000     -1.0352173E-16
 -0.8800000     -1.6142277E-16
 -0.8600000     -8.3252142E-17
 -0.8400000      1.4502599E-16
 -0.8200000      3.7763535E-16
 -0.8000000      3.5821124E-16
 -0.7800000     -6.8067971E-17
 -0.7600000     -7.0790694E-16
 -0.7400000     -9.9854247E-16
 -0.7200000     -3.9075207E-16
 -0.7000000      1.0287451E-15
 -0.6800000      2.2242685E-15
 -0.6600000      1.7597502E-15
 -0.6400000     -8.6590659E-16
 -0.6200000     -4.1062307E-15
 -0.6000000     -4.8492259E-15
 -0.5800000     -8.9679687E-16
 -0.5600000      6.1447904E-15
 -0.5400000      1.0503879E-14
 -0.5200000      6.1923318E-15
 -0.5000000     -6.7205860E-15
 -0.4800000     -1.9081990E-14
 -0.4600000     -1.7793758E-14
 -0.4400000      2.3264732E-15
 -0.4200000      2.9354415E-14
 -0.4000000      3.8770080E-14
 -0.3800000      1.3228652E-14
 -0.3600000     -3.6366096E-14
 -0.3400000     -7.0021557E-14
 -0.3200000     -4.7566172E-14
 -0.3000000      3.0413911E-14
 -0.2800000      1.0719194E-13
 -0.2600000      1.0602116E-13
 -0.2400000      2.9176656E-16
 -0.2200000     -1.4157798E-13
 -0.2000000     -1.9155611E-13
 -0.1800000     -6.9878490E-14
 -0.1600000      1.5936768E-13
 -0.1400000      3.0566454E-13
 -0.1200000      2.0111282E-13
 -0.1000000     -1.2765781E-13
 -7.9999998E-02 -4.2947666E-13
 -5.9999999E-02 -4.1076406E-13
 -3.9999999E-02 -7.5177283E-15
 -2.0000000E-02  4.9712106E-13
  0.0000000E+00  6.6243929E-13
  2.0000000E-02  2.7233595E-13
  3.9999999E-02 -4.1981539E-13
  5.9999999E-02 -8.4709149E-13
  7.9999998E-02 -6.0603443E-13
  0.1000000      1.5439795E-13
  0.1200000      8.1900562E-13
  0.1400000      8.3879203E-13
  0.1600000      2.3130423E-13
  0.1800000     -4.4933341E-13
  0.2000000     -6.7060019E-13
  0.2200000     -4.4183843E-13
  0.2400000     -2.1585361E-13
  0.2600000     -2.4243216E-13
  0.2800000     -1.3538824E-13
  0.3000000      6.7870454E-13
  0.3200000      1.9430243E-12
  0.3400000      2.2162667E-12
  0.3600000      8.2154390E-14
  0.3800000     -3.8302313E-12
  0.4000000     -6.2180708E-12
  0.4200000     -3.4421023E-12
  0.4400000      4.4316334E-12
  0.4600000      1.1759866E-11
  0.4800000      1.0759167E-11
  0.5000000     -1.2016263E-12
  0.5200000     -1.6725092E-11
  0.5400000     -2.2030646E-11
  0.5600000     -8.4671020E-12
  0.5800000      1.7180510E-11
  0.6000000      3.4422444E-11
  0.6200000      2.4832613E-11
  0.6400000     -9.6726325E-12
  0.6600000     -4.3330881E-11
  0.6800000     -4.5099351E-11
  0.7000000     -6.7307548E-12
  0.7200000      4.4550787E-11
  0.7400000      6.4411157E-11
  0.7600000      2.9707452E-11
  0.7800000     -3.6041867E-11
  0.8000000     -7.6929553E-11
  0.8200000     -5.2243685E-11
  0.8400000      2.2605041E-11
  0.8600000      8.2535520E-11
  0.8800000      6.8323888E-11
  0.9000000     -1.4857707E-11
  0.9200000     -9.2885116E-11
  0.9400000     -8.5662970E-11
  0.9600000      1.3413221E-11
  0.9800000      1.1800863E-10
   1.000000      1.1973240E-10
   1.020000     -5.2393901E-12
   1.040000     -1.5452840E-10
   1.060000     -1.7774987E-10
   1.080000     -1.9885741E-11
   1.100000      2.0102758E-10
   1.120000      2.7362965E-10
   1.140000      8.4246179E-11
   1.160000     -2.4656041E-10
   1.180000     -4.2802531E-10
   1.200000     -2.4369712E-10
   1.220000      2.2273738E-10
   1.240000      6.0089927E-10
   1.260000      5.2133270E-10
   1.280000     -4.0759441E-11
   1.300000     -6.7617612E-10
   1.320000     -8.3494872E-10
   1.340000     -2.9822145E-10
   1.360000      5.7234467E-10
   1.380000      1.0680907E-09
   1.400000      7.1068562E-10
   1.420000     -2.9597155E-10
   1.440000     -1.1591234E-09
   1.460000     -1.1213857E-09
   1.480000     -1.2577686E-10
   1.500000      1.0620805E-09
   1.520000      1.4408456E-09
   1.540000      6.2402139E-10
   1.560000     -7.7046358E-10
   1.580000     -1.5783254E-09
   1.600000     -1.0655583E-09
   1.620000      3.9608231E-10
   1.640000      1.5789570E-09
   1.660000      1.4275733E-09
   1.680000      8.8098270E-12
   1.700000     -1.4743111E-09
   1.720000     -1.6927389E-09
   1.740000     -3.9296175E-10
   1.760000      1.2905814E-09
   1.780000      1.7786899E-09
   1.800000      4.9310839E-10
   1.820000     -1.4891246E-09
   1.840000     -2.2707518E-09
   1.860000     -8.4882479E-10
   1.880000      1.7951006E-09
   1.900000      3.3377159E-09
   1.920000      2.1227800E-09
   1.940000     -1.1573404E-09
   1.960000     -3.7330348E-09
   1.980000     -3.0244798E-09
   2.000000      8.9602603E-10
   2.020000      4.8933315E-09
   2.040000      5.1090425E-09
   2.060000      3.4763614E-10
   2.080000     -6.3872934E-09
   2.100000     -9.8483390E-09
   2.120000     -6.7401706E-09
   2.140000      1.2450277E-09
   2.160000      8.3531981E-09
   2.180000      9.3065120E-09
   2.200000      3.8959977E-09
   2.220000     -2.3754467E-09
   2.240000     -2.5909435E-09
   2.260000      5.5480243E-09
   2.280000      1.6994944E-08
   2.300000      2.2613403E-08
   2.320000      1.6183924E-08
   2.340000     -4.9120313E-10
   2.360000     -1.8885945E-08
   2.380000     -3.0835981E-08
   2.400000     -3.5815027E-08
   2.420000     -4.2261586E-08
   2.440000     -6.1495271E-08
   2.460000     -9.8993752E-08
   2.480000     -1.5032008E-07
   2.500000     -2.0539831E-07
   2.520000     -2.5787097E-07
   2.540000     -3.1176452E-07
   2.560000     -3.7967973E-07
   2.580000     -4.7383386E-07
   2.600000     -5.9758617E-07
   2.620000     -7.4501179E-07
   2.640000     -9.0935629E-07
   2.660000     -1.0933604E-06
   2.680000     -1.3123796E-06
   2.700000     -1.5871356E-06
   2.720000     -1.9320921E-06
   2.740000     -2.3498624E-06
   2.760000     -2.8374152E-06
   2.780000     -3.3996191E-06
   2.800000     -4.0585755E-06
   2.820000     -4.8499423E-06
   2.840000     -5.8084470E-06
   2.860000     -6.9548637E-06
   2.880000     -8.2967799E-06
   2.900000     -9.8443816E-06
   2.920000     -1.1629139E-05
   2.940000     -1.3709299E-05
   2.960000     -1.6156106E-05
   2.980000     -1.9031146E-05
   3.000000     -2.2374228E-05
   3.020000     -2.6214087E-05
   3.040000     -3.0595511E-05
   3.060000     -3.5601413E-05
   3.080000     -4.1350584E-05
   3.100000     -4.7970709E-05
   3.120000     -5.5567627E-05
   3.140000     -6.4216627E-05
   3.160000     -7.3985255E-05
   3.180000     -8.4971056E-05
   3.200000     -9.7323886E-05
   3.220000     -1.1123335E-04
   3.240000     -1.2688947E-04
   3.260000     -1.4444785E-04
   3.280000     -1.6402781E-04
   3.300000     -1.8574564E-04
   3.320000     -2.0975602E-04
   3.340000     -2.3626549E-04
   3.360000     -2.6550476E-04
   3.380000     -2.9768000E-04
   3.400000     -3.3294156E-04
   3.420000     -3.7139500E-04
   3.440000     -4.1314401E-04
   3.460000     -4.5832712E-04
   3.480000     -5.0711312E-04
   3.500000     -5.5965589E-04
   3.520000     -6.1604142E-04
   3.540000     -6.7627028E-04
   3.560000     -7.4028666E-04
   3.580000     -8.0802664E-04
   3.600000     -8.7943836E-04
   3.620000     -9.5445098E-04
   3.640000     -1.0329116E-03
   3.660000     -1.1145408E-03
   3.680000     -1.1989437E-03
   3.700000     -1.2856664E-03
   3.720000     -1.3742473E-03
   3.740000     -1.4642135E-03
   3.760000     -1.5550173E-03
   3.780000     -1.6459606E-03
   3.800000     -1.7361732E-03
   3.820000     -1.8246667E-03
   3.840000     -1.9104282E-03
   3.860000     -1.9924748E-03
   3.880000     -2.0698234E-03
   3.900000     -2.1413988E-03
   3.920000     -2.2059542E-03
   3.940000     -2.2620840E-03
   3.960000     -2.3083286E-03
   3.980000     -2.3432970E-03
   4.000000     -2.3657244E-03
   4.020000     -2.3744183E-03
   4.040000     -2.3681517E-03
   4.060000     -2.3455999E-03
   4.080000     -2.3053936E-03
   4.100000     -2.2462599E-03
   4.120000     -2.1671599E-03
   4.140000     -2.0673212E-03
   4.160000     -1.9461532E-03
   4.180000     -1.8031352E-03
   4.200000     -1.6377791E-03
   4.220000     -1.4497214E-03
   4.240000     -1.2388809E-03
   4.260000     -1.0055663E-03
   4.280000     -7.5045502E-04
   4.300000     -4.7446915E-04
   4.320000     -1.7866236E-04
   4.340000      1.3578071E-04
   4.360000      4.6742667E-04
   4.380000      8.1445870E-04
   4.400000      1.1746449E-03
   4.420000      1.5454507E-03
   4.440000      1.9242110E-03
   4.460000      2.3082285E-03
   4.480000      2.6947195E-03
   4.500000      3.0806691E-03
   4.520000      3.4627405E-03
   4.540000      3.8373491E-03
   4.560000      4.2008851E-03
   4.580000      4.5499266E-03
   4.600000      4.8812982E-03
   4.620000      5.1919371E-03
   4.640000      5.4787095E-03
   4.660000      5.7383571E-03
   4.680000      5.9676659E-03
   4.700000      6.1637647E-03
   4.720000      6.3243452E-03
   4.740000      6.4476384E-03
   4.760000      6.5321927E-03
   4.780000      6.5766387E-03
   4.800000      6.5796645E-03
   4.820000      6.5402426E-03
   4.840000      6.4579477E-03
   4.860000      6.3331183E-03
   4.880000      6.1667287E-03
   4.900000      5.9600761E-03
   4.920000      5.7145203E-03
   4.940000      5.4314882E-03
   4.960000      5.1127239E-03
   4.980000      4.7605704E-03
   5.000000      4.3780310E-03
   5.020000      3.9685378E-03
   5.040000      3.5355906E-03
   5.060000      3.0825306E-03
   5.080000      2.6126073E-03
   5.100000      2.1292430E-03
   5.120000      1.6362368E-03
   5.140000      1.1377024E-03
   5.160000      6.3775509E-04
   5.180000      1.4017923E-04
   5.200000     -3.5167503E-04
   5.220000     -8.3470502E-04
   5.240000     -1.3057676E-03
   5.260000     -1.7615692E-03
   5.280000     -2.1988661E-03
   5.300000     -2.6148367E-03
   5.320000     -3.0073300E-03
   5.340000     -3.3747817E-03
   5.360000     -3.7158651E-03
   5.380000     -4.0291725E-03
   5.400000     -4.3132124E-03
   5.420000     -4.5667454E-03
   5.440000     -4.7891890E-03
   5.460000     -4.9807499E-03
   5.480000     -5.1421444E-03
   5.500000     -5.2741086E-03
   5.520000     -5.3770887E-03
   5.540000     -5.4513649E-03
   5.560000     -5.4975068E-03
   5.580000     -5.5167866E-03
   5.600000     -5.5111777E-03
   5.620000     -5.4829149E-03
   5.640000     -5.4339268E-03
   5.660000     -5.3655938E-03
   5.680000     -5.2790064E-03
   5.700000     -5.1755146E-03
   5.720000     -5.0571081E-03
   5.740000     -4.9263067E-03
   5.760000     -4.7856295E-03
   5.780000     -4.6370514E-03
   5.800000     -4.4818651E-03
   5.820000     -4.3210490E-03
   5.840000     -4.1558258E-03
   5.860000     -3.9879531E-03
   5.880000     -3.8195087E-03
   5.900000     -3.6523480E-03
   5.920000     -3.4876724E-03
   5.940000     -3.3260619E-03
   5.960000     -3.1679303E-03
   5.980000     -3.0140241E-03
   6.000000     -2.8655482E-03
   6.020000     -2.7238196E-03
   6.040000     -2.5897473E-03
   6.060000     -2.4635755E-03
   6.080000     -2.3451154E-03
   6.100000     -2.2342717E-03
   6.120000     -2.1314239E-03
   6.140000     -2.0373436E-03
   6.160000     -1.9527172E-03
   6.180000     -1.8776853E-03
   6.200000     -1.8117970E-03
   6.220000     -1.7544378E-03
   6.240000     -1.7053782E-03
   6.260000     -1.6649887E-03
   6.280000     -1.6339344E-03
   6.300000     -1.6126006E-03
   6.320000     -1.6007376E-03
   6.340000     -1.5976375E-03
   6.360000     -1.6027165E-03
   6.380000     -1.6160299E-03
   6.400000     -1.6382955E-03
   6.420000     -1.6703999E-03
   6.440000     -1.7127912E-03
   6.460000     -1.7652644E-03
   6.480000     -1.8273280E-03
   6.500000     -1.8988592E-03
   6.520000     -1.9805240E-03
   6.540000     -2.0736193E-03
   6.560000     -2.1794727E-03
   6.580000     -2.2988946E-03
   6.600000     -2.4321314E-03
   6.620000     -2.5793621E-03
   6.640000     -2.7413305E-03
   6.660000     -2.9195999E-03
   6.680000     -3.1162340E-03
   6.700000     -3.3331672E-03
   6.720000     -3.5717920E-03
   6.740000     -3.8330974E-03
   6.760000     -4.1182358E-03
   6.780000     -4.4290526E-03
   6.800000     -4.7681369E-03
   6.820000     -5.1383567E-03
   6.840000     -5.5422611E-03
   6.860000     -5.9818337E-03
   6.880000     -6.4587798E-03
   6.900000     -6.9750939E-03
   6.920000     -7.5334050E-03
   6.940000     -8.1368098E-03
   6.960000     -8.7883063E-03
   6.980000     -9.4902841E-03
   7.000000     -1.0244465E-02
   7.020000     -1.1052296E-02
   7.040000     -1.1915426E-02
   7.060000     -1.2835799E-02
   7.080000     -1.3815251E-02
   7.100000     -1.4854869E-02
   7.120000     -1.5954614E-02
   7.140000     -1.7113432E-02
   7.160000     -1.8329704E-02
   7.180000     -1.9601557E-02
   7.200000     -2.0926699E-02
   7.220000     -2.2301802E-02
   7.240000     -2.3721866E-02
   7.260000     -2.5179975E-02
   7.280000     -2.6667532E-02
   7.300000     -2.8174687E-02
   7.320000     -2.9690463E-02
   7.340000     -3.1202368E-02
   7.360000     -3.2695692E-02
   7.380000     -3.4152996E-02
   7.400000     -3.5554096E-02
   7.420000     -3.6876447E-02
   7.440000     -3.8095586E-02
   7.460000     -3.9185122E-02
   7.480000     -4.0116310E-02
   7.500000     -4.0857539E-02
   7.520000     -4.1374180E-02
   7.540000     -4.1628972E-02
   7.560000     -4.1582741E-02
   7.580000     -4.1194960E-02
   7.600000     -4.0423930E-02
   7.620000     -3.9226640E-02
   7.640000     -3.7558772E-02
   7.660000     -3.5375208E-02
   7.680000     -3.2630973E-02
   7.700000     -2.9282415E-02
   7.720000     -2.5288075E-02
   7.740000     -2.0609217E-02
   7.760000     -1.5210245E-02
   7.780000     -9.0593174E-03
   7.800000     -2.1294600E-03
   7.820000      5.6000142E-03
   7.840000      1.4142158E-02
   7.860000      2.3501428E-02
   7.880000      3.3673100E-02
   7.900000      4.4642795E-02
   7.920000      5.6385677E-02
   7.940000      6.8865456E-02
   7.960000      8.2033262E-02
   7.980000      9.5826946E-02
   8.000000      0.1101709    
   8.020000      0.1249763    
   8.040000      0.1401414    
   8.060000      0.1555519    
   8.080000      0.1710808    
   8.100000      0.1865887    
   8.120000      0.2019252    
   8.140000      0.2169298    
   8.160000      0.2314341    
   8.180000      0.2452638    
   8.200000      0.2582400    
   8.220000      0.2701809    
   8.240000      0.2809041    
   8.260000      0.2902288    
   8.280000      0.2979794    
   8.300000      0.3039877    
   8.320000      0.3080966    
   8.340000      0.3101614    
   8.360000      0.3100521    
   8.380000      0.3076564    
   8.400000      0.3028820    
   8.420000      0.2956592    
   8.440000      0.2859433    
   8.460000      0.2737156    
   8.480000      0.2589848    
   8.500000      0.2417868    
   8.520000      0.2221864    
   8.540000      0.2002774    
   8.560000      0.1761826    
   8.580000      0.1500532    
   8.600000      0.1220672    
   8.620000      9.2427716E-02
   8.640000      6.1360523E-02
   8.660000      2.9112259E-02
   8.680000     -4.0519945E-03
   8.700000     -3.7851512E-02
   8.720000     -7.1993537E-02
   8.740000     -0.1061772    
   8.760000     -0.1400972    
   8.780000     -0.1734483    
   8.800000     -0.2059280    
   8.820000     -0.2372404    
   8.840000     -0.2671003    
   8.860000     -0.2952362    
   8.880000     -0.3213953    
   8.900000     -0.3453459    
   8.920000     -0.3668804    
   8.940000     -0.3858174    
   8.960000     -0.4020038    
   8.980000     -0.4153165    
   9.000000     -0.4256641    
   9.020000     -0.4329881    
   9.040000     -0.4372628    
   9.060000     -0.4384952    
   9.080000     -0.4367242    
   9.100000     -0.4320192    
   9.120000     -0.4244789    
   9.140000     -0.4142305    
   9.160000     -0.4014263    
   9.180000     -0.3862424    
   9.200000     -0.3688746    
   9.220000     -0.3495361    
   9.240000     -0.3284535    
   9.260000     -0.3058650    
   9.280000     -0.2820161    
   9.300000     -0.2571572    
   9.320000     -0.2315398    
   9.340000     -0.2054131    
   9.360000     -0.1790211    
   9.380000     -0.1525996    
   9.400000     -0.1263746    
   9.420000     -0.1005594    
   9.440000     -7.5353205E-02
   9.460000     -5.0938696E-02
   9.480000     -2.7480541E-02
   9.500000     -5.1242346E-03
   9.520000      1.6004374E-02
   9.540000      3.5799116E-02
   9.560000      5.4173574E-02
   9.580000      7.1061045E-02
   9.600000      8.6414479E-02
   9.620000      0.1002060    
   9.640000      0.1124259    
   9.660000      0.1230812    
   9.680000      0.1321941    
   9.700000      0.1398004    
   9.720000      0.1459487    
   9.740000      0.1506988    
   9.760000      0.1541206    
   9.780000      0.1562916    
   9.800000      0.1572957    
   9.820000      0.1572208    
   9.840000      0.1561582    
   9.860000      0.1542012    
   9.880000      0.1514442    
   9.900000      0.1479813    
   9.920000      0.1439047    
   9.940000      0.1393038    
   9.960000      0.1342642    
   9.980000      0.1288678    
   10.00000      0.1231923    
   10.02000      0.1173107    
   10.04000      0.1112909    
   10.06000      0.1051944    
   10.08000      9.9077165E-02
   10.10000      9.2989288E-02
   10.12000      8.6975731E-02
   10.14000      8.1076317E-02
   10.16000      7.5325698E-02
   10.18000      6.9753155E-02
   10.20000      6.4382754E-02
   10.22000      5.9233807E-02
   10.24000      5.4321475E-02
   10.26000      4.9657281E-02
   10.28000      4.5249362E-02
   10.30000      4.1102551E-02
   10.32000      3.7218500E-02
   10.34000      3.3595953E-02
   10.36000      3.0231155E-02
   10.38000      2.7118372E-02
   10.40000      2.4250234E-02
   10.42000      2.1618007E-02
   10.44000      1.9211711E-02
   10.46000      1.7020265E-02
   10.48000      1.5031686E-02
   10.50000      1.3233379E-02
   10.52000      1.1612465E-02
   10.54000      1.0156048E-02
   10.56000      8.8513801E-03
   10.58000      7.6859086E-03
   10.60000      6.6472874E-03
   10.62000      5.7234997E-03
   10.64000      4.9030925E-03
   10.66000      4.1754181E-03
   10.68000      3.5307610E-03
   10.70000      2.9602814E-03
   10.72000      2.4558487E-03
   10.74000      2.0099541E-03
   10.76000      1.6157967E-03
   10.78000      1.2674750E-03
   10.80000      9.6009450E-04
   10.82000      6.8965642E-04
   10.84000      4.5276611E-04
   10.86000      2.4637656E-04
   10.88000      6.7737870E-05
   10.90000     -8.5449246E-05
   10.92000     -2.1489439E-04
   10.94000     -3.2180236E-04
   10.96000     -4.0720188E-04
   10.98000     -4.7230377E-04
   11.00000     -5.1862304E-04
   11.02000     -5.4779305E-04
   11.04000     -5.6126481E-04
   11.06000     -5.6019367E-04
   11.08000     -5.4565090E-04
   11.10000     -5.1899959E-04
   11.12000     -4.8211310E-04
   11.14000     -4.3723371E-04
   11.16000     -3.8657771E-04
   11.18000     -3.3201417E-04
   11.20000     -2.7507334E-04
   11.22000     -2.1724116E-04
   11.24000     -1.6023591E-04
   11.26000     -1.0597944E-04
   11.28000     -5.6256034E-05
   11.30000     -1.2339186E-05
   11.32000      2.5103907E-05
   11.34000      5.5774326E-05
   11.36000      7.9414953E-05
   11.38000      9.5709824E-05
   11.40000      1.0449644E-04
   11.42000      1.0607414E-04
   11.44000      1.0129606E-04
   11.46000      9.1334907E-05
   11.48000      7.7317949E-05
   11.50000      6.0143851E-05
   11.52000      4.0612998E-05
   11.54000      1.9698413E-05
   11.56000     -1.3514040E-06
   11.58000     -2.1225689E-05
   11.60000     -3.8925638E-05
   11.62000     -5.3985761E-05
   11.64000     -6.6361259E-05
   11.66000     -7.6098317E-05
   11.68000     -8.3090526E-05
   11.70000     -8.7135413E-05
   11.72000     -8.8234272E-05
   11.74000     -8.6870648E-05
   11.76000     -8.4032443E-05
   11.78000     -8.0961530E-05
   11.80000     -7.8819845E-05
   11.82000     -7.8492252E-05
   11.84000     -8.0610516E-05
   11.86000     -8.5716681E-05
   11.88000     -9.4411946E-05
   11.90000     -1.0737935E-04
   11.92000     -1.2526114E-04
   11.94000     -1.4845235E-04
   11.96000     -1.7691778E-04
   11.98000     -2.1014242E-04
   12.00000     -2.4726812E-04
   12.02000     -2.8735292E-04
   12.04000     -3.2957923E-04
   12.06000     -3.7323937E-04
   12.08000     -4.1748624E-04
   12.10000     -4.6105337E-04
   12.12000     -5.0222274E-04
   12.14000     -5.3914520E-04
   12.16000     -5.7031040E-04
   12.18000     -5.9479778E-04
   12.20000     -6.1209878E-04
   12.22000     -6.2167592E-04
   12.24000     -6.2267977E-04
   12.26000     -6.1412196E-04
   12.28000     -5.9538655E-04
   12.30000     -5.6663068E-04
   12.32000     -5.2870275E-04
   12.34000     -4.8264500E-04
   12.36000     -4.2923499E-04
   12.38000     -3.6898672E-04
   12.40000     -3.0258927E-04
   12.42000     -2.3133014E-04
   12.44000     -1.5705229E-04
   12.46000     -8.1639395E-05
   12.48000     -6.4867381E-06
   12.50000      6.7558831E-05
   12.52000      1.3975328E-04
   12.54000      2.0895973E-04
   12.56000      2.7361355E-04
   12.58000      3.3221589E-04
   12.60000      3.8390717E-04
   12.62000      4.2858784E-04
   12.64000      4.6648158E-04
   12.66000      4.9756811E-04
   12.68000      5.2142492E-04
   12.70000      5.3761172E-04
   12.72000      5.4620160E-04
   12.74000      5.4792623E-04
   12.76000      5.4377969E-04
   12.78000      5.3444802E-04
   12.80000      5.2008411E-04
   12.82000      5.0060439E-04
   12.84000      4.7618744E-04
   12.86000      4.4748685E-04
   12.88000      4.1537377E-04
   12.90000      3.8047959E-04
   12.92000      3.4297458E-04
   12.94000      3.0275885E-04
   12.96000      2.5983941E-04
   12.98000      2.1452022E-04
   13.00000      1.6725637E-04
   13.02000      1.1836450E-04
   13.04000      6.7898029E-05
   13.06000      1.5799200E-05
   13.08000     -3.7840120E-05
   13.10000     -9.2655937E-05
   13.12000     -1.4810073E-04
   13.14000     -2.0359934E-04
   13.16000     -2.5859411E-04
   13.18000     -3.1245957E-04
   13.20000     -3.6442067E-04
   13.22000     -4.1359081E-04
   13.24000     -4.5909427E-04
   13.26000     -5.0013541E-04
   13.28000     -5.3594605E-04
   13.30000     -5.6569366E-04
   13.32000     -5.8848580E-04
   13.34000     -6.0349912E-04
   13.36000     -6.1010860E-04
   13.38000     -6.0788641E-04
   13.40000     -5.9648848E-04
   13.42000     -5.7559094E-04
   13.44000     -5.4500176E-04
   13.46000     -5.0487445E-04
   13.48000     -4.5580781E-04
   13.50000     -3.9869535E-04
   13.52000     -3.3443951E-04
   13.54000     -2.6380768E-04
   13.56000     -1.8759564E-04
   13.58000     -1.0695853E-04
   13.60000     -2.3572306E-05
   13.62000      6.0589075E-05
   13.64000      1.4372471E-04
   13.66000      2.2453812E-04
   13.68000      3.0214095E-04
   13.70000      3.7561858E-04
   13.72000      4.4365873E-04
   13.74000      5.0460111E-04
   13.76000      5.5689627E-04
   13.78000      5.9960084E-04
   13.80000      6.3249911E-04
   13.82000      6.5576658E-04
   13.84000      6.6948321E-04
   13.86000      6.7342253E-04
   13.88000      6.6729152E-04
   13.90000      6.5120147E-04
   13.92000      6.2594790E-04
   13.94000      5.9284561E-04
   13.96000      5.5324106E-04
   13.98000      5.0809642E-04
   14.00000      4.5797435E-04
   14.02000      4.0341070E-04
   14.04000      3.4533333E-04
   14.06000      2.8514906E-04
   14.08000      2.2440664E-04
   14.10000      1.6431200E-04
   14.12000      1.0550149E-04
   14.14000      4.8255701E-05
   14.16000     -7.0503406E-06
   14.18000     -5.9673966E-05
   14.20000     -1.0866124E-04
   14.22000     -1.5329255E-04
   14.24000     -1.9340777E-04
   14.26000     -2.2930559E-04
   14.28000     -2.6130286E-04
   14.30000     -2.8935476E-04
   14.32000     -3.1307692E-04
   14.34000     -3.3212968E-04
   14.36000     -3.4657941E-04
   14.38000     -3.5687920E-04
   14.40000     -3.6348513E-04
   14.42000     -3.6648446E-04
   14.44000     -3.6560127E-04
   14.46000     -3.6057300E-04
   14.48000     -3.5152046E-04
   14.50000     -3.3893809E-04
   14.52000     -3.2330994E-04
   14.54000     -3.0473471E-04
   14.56000     -2.8294168E-04
   14.58000     -2.5769067E-04
   14.60000     -2.2916327E-04
   14.62000     -1.9795570E-04
   14.64000     -1.6468277E-04
   14.66000     -1.2959715E-04
   14.68000     -9.2620125E-05
   14.70000     -5.3769461E-05
   14.72000     -1.3563920E-05
   14.74000      2.7006770E-05
   14.76000      6.6935994E-05
   14.78000      1.0564796E-04
   14.80000      1.4301152E-04
   14.82000      1.7891801E-04
   14.84000      2.1284955E-04
   14.86000      2.4387152E-04
   14.88000      2.7106146E-04
   14.90000      2.9395620E-04
   14.92000      3.1258585E-04
   14.94000      3.2707793E-04
   14.96000      3.3724212E-04
   14.98000      3.4256146E-04
   15.00000      3.4260543E-04
   15.02000      3.3745595E-04
   15.04000      3.2772086E-04
   15.06000      3.1412084E-04
   15.08000      2.9705808E-04
   15.10000      2.7659332E-04
   15.12000      2.5284509E-04
   15.14000      2.2639576E-04
   15.16000      1.9827503E-04
   15.18000      1.6950992E-04
   15.20000      1.4067224E-04
   15.22000      1.1187205E-04
   15.24000      8.3212064E-05
   15.26000      5.5252814E-05
   15.28000      2.9006958E-05
   15.30000      5.4315406E-06
   15.32000     -1.5112819E-05
   15.34000     -3.2911033E-05
   15.36000     -4.8387894E-05
   15.38000     -6.1526691E-05
   15.40000     -7.1782903E-05
   15.42000     -7.8595505E-05
   15.44000     -8.2011087E-05
   15.46000     -8.2800667E-05
   15.48000     -8.1919992E-05
   15.50000     -7.9803765E-05
   15.52000     -7.6172815E-05
   15.54000     -7.0565504E-05
   15.56000     -6.3107196E-05
   15.58000     -5.4772750E-05
   15.60000     -4.6850018E-05
   15.62000     -4.0068429E-05
   15.64000     -3.4201075E-05
   15.66000     -2.8532415E-05
   15.68000     -2.2776634E-05
   15.70000     -1.7590841E-05
   15.72000     -1.4183003E-05
   15.74000     -1.3352945E-05
   15.76000     -1.4844659E-05
   15.78000     -1.7615144E-05
   15.80000     -2.0781841E-05
   15.82000     -2.4380681E-05
   15.84000     -2.9240638E-05
   15.86000     -3.6099333E-05
   15.88000     -4.4785749E-05
   15.90000     -5.4226864E-05
   15.92000     -6.3265099E-05
   15.94000     -7.1523646E-05
   15.96000     -7.9523335E-05
   15.98000     -8.7956891E-05
   16.00000     -9.6804666E-05
   16.02000     -1.0510829E-04
   16.04000     -1.1160084E-04
   16.06000     -1.1560928E-04
   16.08000     -1.1741928E-04
   16.10000     -1.1780848E-04
   16.12000     -1.1721293E-04
   16.14000     -1.1529194E-04
   16.16000     -1.1125044E-04
   16.18000     -1.0457209E-04
   16.20000     -9.5469135E-05
   16.22000     -8.4659878E-05
   16.24000     -7.2723356E-05
   16.26000     -5.9650807E-05
   16.28000     -4.4994333E-05
   16.30000     -2.8442826E-05
   16.32000     -1.0275431E-05
   16.34000      8.7141998E-06
   16.36000      2.7728458E-05
   16.38000      4.6434950E-05
   16.40000      6.4990760E-05
   16.42000      8.3644169E-05
   16.44000      1.0230706E-04
   16.46000      1.2048012E-04
   16.48000      1.3756473E-04
   16.50000      1.5325054E-04
   16.52000      1.6763016E-04
   16.54000      1.8096462E-04
   16.56000      1.9333416E-04
   16.58000      2.0448247E-04
   16.60000      2.1396377E-04
   16.62000      2.2143725E-04
   16.64000      2.2685356E-04
   16.66000      2.3040125E-04
   16.68000      2.3229093E-04
   16.70000      2.3256289E-04
   16.72000      2.3105004E-04
   16.74000      2.2749019E-04
   16.76000      2.2168459E-04
   16.78000      2.1359432E-04
   16.80000      2.0332534E-04
   16.82000      1.9101799E-04
   16.84000      1.7670680E-04
   16.86000      1.6024067E-04
   16.88000      1.4133805E-04
   16.90000      1.1977592E-04
   16.92000      9.5600888E-05