  -2.400000      0.0000000E+00
  -2.380000      0.0000000E+00
  -2.360000      0.0000000E+00
  -2.340000      0.0000000E+00
  -2.320000      0.0000000E+00
  -2.300000      0.0000000E+00
  -2.280000      0.0000000E+00
  -2.260000      0.0000000E+00
  -2.240000      0.0000000E+00
  -2.220000      0.0000000E+00
  -2.200000      0.0000000E+00
  -2.180000      0.0000000E+00
  -2.160000      0.0000000E+00
  -2.140000      0.0000000E+00
  -2.120000      0.0000000E+00
  -2.100000      0.0000000E+00
  -2.080000      0.0000000E+00
  -2.060000      0.0000000E+00
  -2.040000      0.0000000E+00
  -2.020000      0.0000000E+00
  -2.000000      0.0000000E+00
  -1.980000      0.0000000E+00
  -1.960000      0.0000000E+00
  -1.940000      0.0000000E+00
  -1.920000      0.0000000E+00
  -1.900000      0.0000000E+00
  -1.880000      0.0000000E+00
  -1.860000      0.0000000E+00
  -1.840000      0.0000000E+00
  -1.820000      0.0000000E+00
  -1.800000      0.0000000E+00
  -1.780000      0.0000000E+00
  -1.760000      0.0000000E+00
  -1.740000      0.0000000E+00
  -1.720000      0.0000000E+00
  -1.700000      0.0000000E+00
  -1.680000      0.0000000E+00
  -1.660000      0.0000000E+00
  -1.640000      0.0000000E+00
  -1.620000      0.0000000E+00
  -1.600000      0.0000000E+00
  -1.580000      0.0000000E+00
  -1.560000      0.0000000E+00
  -1.540000      0.0000000E+00
  -1.520000      0.0000000E+00
  -1.500000      0.0000000E+00
  -1.480000      0.0000000E+00
  -1.460000      0.0000000E+00
  -1.440000      0.0000000E+00
  -1.420000      0.0000000E+00
  -1.400000      0.0000000E+00
  -1.380000      0.0000000E+00
  -1.360000      0.0000000E+00
  -1.340000      0.0000000E+00
  -1.320000      0.0000000E+00
  -1.300000      0.0000000E+00
  -1.280000      0.0000000E+00
  -1.260000      0.0000000E+00
  -1.240000      0.0000000E+00
  -1.220000      0.0000000E+00
  -1.200000      0.0000000E+00
  -1.180000      0.0000000E+00
  -1.160000      0.0000000E+00
  -1.140000      0.0000000E+00
  -1.120000      0.0000000E+00
  -1.100000      0.0000000E+00
  -1.080000      0.0000000E+00
  -1.060000      0.0000000E+00
  -1.040000      0.0000000E+00
  -1.020000      0.0000000E+00
  -1.000000      0.0000000E+00
 -0.9800000      0.0000000E+00
 -0.9600000      0.0000000E+00
 -0.9400000      0.0000000E+00
 -0.9200000      0.0000000E+00
 -0.9000000      0.0000000E+00
 -0.8800000      0.0000000E+00
 -0.8600000      0.0000000E+00
 -0.8400000      0.0000000E+00
 -0.8200000      0.0000000E+00
 -0.8000000      0.0000000E+00
 -0.7800000      0.0000000E+00
 -0.7600000      0.0000000E+00
 -0.7400000      0.0000000E+00
 -0.7200000      0.0000000E+00
 -0.7000000      0.0000000E+00
 -0.6800000      0.0000000E+00
 -0.6600000      0.0000000E+00
 -0.6400000      0.0000000E+00
 -0.6200000      0.0000000E+00
 -0.6000000      0.0000000E+00
 -0.5800000      0.0000000E+00
 -0.5600000      0.0000000E+00
 -0.5400000      0.0000000E+00
 -0.5200000      0.0000000E+00
 -0.5000000      0.0000000E+00
 -0.4800000      0.0000000E+00
 -0.4600000      0.0000000E+00
 -0.4400000      0.0000000E+00
 -0.4200000      0.0000000E+00
 -0.4000000      0.0000000E+00
 -0.3800000      0.0000000E+00
 -0.3600000      0.0000000E+00
 -0.3400000      0.0000000E+00
 -0.3200000      0.0000000E+00
 -0.3000000      0.0000000E+00
 -0.2800000      0.0000000E+00
 -0.2600000      0.0000000E+00
 -0.2400000      0.0000000E+00
 -0.2200000      0.0000000E+00
 -0.2000000      0.0000000E+00
 -0.1800000      0.0000000E+00
 -0.1600000      0.0000000E+00
 -0.1400000      0.0000000E+00
 -0.1200000      0.0000000E+00
 -0.1000000      0.0000000E+00
 -7.9999998E-02  0.0000000E+00
 -5.9999999E-02  0.0000000E+00
 -3.9999999E-02  0.0000000E+00
 -2.0000000E-02  0.0000000E+00
  0.0000000E+00  0.0000000E+00
  2.0000000E-02  0.0000000E+00
  3.9999999E-02  0.0000000E+00
  5.9999999E-02  0.0000000E+00
  7.9999998E-02  0.0000000E+00
  0.1000000      0.0000000E+00
  0.1200000      0.0000000E+00
  0.1400000      0.0000000E+00
  0.1600000      0.0000000E+00
  0.1800000      0.0000000E+00
  0.2000000      0.0000000E+00
  0.2200000      0.0000000E+00
  0.2400000      0.0000000E+00
  0.2600000      0.0000000E+00
  0.2800000      0.0000000E+00
  0.3000000      0.0000000E+00
  0.3200000      0.0000000E+00
  0.3400000      0.0000000E+00
  0.3600000      0.0000000E+00
  0.3800000      0.0000000E+00
  0.4000000      0.0000000E+00
  0.4200000      0.0000000E+00
  0.4400000      0.0000000E+00
  0.4600000      0.0000000E+00
  0.4800000      0.0000000E+00
  0.5000000      0.0000000E+00
  0.5200000      0.0000000E+00
  0.5400000      0.0000000E+00
  0.5600000      0.0000000E+00
  0.5800000      0.0000000E+00
  0.6000000      0.0000000E+00
  0.6200000      0.0000000E+00
  0.6400000      0.0000000E+00
  0.6600000      0.0000000E+00
  0.6800000      0.0000000E+00
  0.7000000      0.0000000E+00
  0.7200000      0.0000000E+00
  0.7400000      0.0000000E+00
  0.7600000      0.0000000E+00
  0.7800000      0.0000000E+00
  0.8000000      0.0000000E+00
  0.8200000      0.0000000E+00
  0.8400000      0.0000000E+00
  0.8600000      0.0000000E+00
  0.8800000      0.0000000E+00
  0.9000000      0.0000000E+00
  0.9200000      0.0000000E+00
  0.9400000      0.0000000E+00
  0.9600000      0.0000000E+00
  0.9800000      0.0000000E+00
   1.000000      0.0000000E+00
   1.020000      0.0000000E+00
   1.040000      0.0000000E+00
   1.060000      0.0000000E+00
   1.080000      0.0000000E+00
   1.100000      0.0000000E+00
   1.120000      0.0000000E+00
   1.140000      0.0000000E+00
   1.160000      0.0000000E+00
   1.180000      0.0000000E+00
   1.200000      0.0000000E+00
   1.220000      0.0000000E+00
   1.240000      0.0000000E+00
   1.260000      0.0000000E+00
   1.280000      0.0000000E+00
   1.300000      0.0000000E+00
   1.320000      0.0000000E+00
   1.340000      0.0000000E+00
   1.360000      0.0000000E+00
   1.380000      0.0000000E+00
   1.400000      0.0000000E+00
   1.420000      0.0000000E+00
   1.440000      0.0000000E+00
   1.460000      0.0000000E+00
   1.480000      0.0000000E+00
   1.500000      0.0000000E+00
   1.520000      0.0000000E+00
   1.540000      0.0000000E+00
   1.560000      0.0000000E+00
   1.580000      0.0000000E+00
   1.600000      0.0000000E+00
   1.620000      0.0000000E+00
   1.640000      0.0000000E+00
   1.660000      0.0000000E+00
   1.680000      0.0000000E+00
   1.700000      0.0000000E+00
   1.720000      0.0000000E+00
   1.740000      0.0000000E+00
   1.760000      0.0000000E+00
   1.780000      0.0000000E+00
   1.800000      0.0000000E+00
   1.820000      0.0000000E+00
   1.840000      0.0000000E+00
   1.860000      0.0000000E+00
   1.880000      0.0000000E+00
   1.900000      0.0000000E+00
   1.920000      0.0000000E+00
   1.940000      0.0000000E+00
   1.960000      0.0000000E+00
   1.980000      0.0000000E+00
   2.000000      0.0000000E+00
   2.020000      0.0000000E+00
   2.040000      0.0000000E+00
   2.060000      0.0000000E+00
   2.080000      0.0000000E+00
   2.100000      0.0000000E+00
   2.120000      0.0000000E+00
   2.140000      0.0000000E+00
   2.160000      0.0000000E+00
   2.180000      0.0000000E+00
   2.200000      0.0000000E+00
   2.220000      0.0000000E+00
   2.240000      0.0000000E+00
   2.260000      0.0000000E+00
   2.280000      0.0000000E+00
   2.300000      0.0000000E+00
   2.320000      0.0000000E+00
   2.340000      0.0000000E+00
   2.360000      0.0000000E+00
   2.380000      0.0000000E+00
   2.400000      0.0000000E+00
   2.420000      0.0000000E+00
   2.440000      0.0000000E+00
   2.460000      0.0000000E+00
   2.480000      0.0000000E+00
   2.500000      0.0000000E+00
   2.520000      0.0000000E+00
   2.540000      0.0000000E+00
   2.560000      0.0000000E+00
   2.580000      0.0000000E+00
   2.600000      0.0000000E+00
   2.620000      0.0000000E+00
   2.640000      0.0000000E+00
   2.660000      0.0000000E+00
   2.680000      0.0000000E+00
   2.700000      0.0000000E+00
   2.720000      0.0000000E+00
   2.740000      0.0000000E+00
   2.760000      0.0000000E+00
   2.780000      0.0000000E+00
   2.800000      0.0000000E+00
   2.820000      0.0000000E+00
   2.840000      0.0000000E+00
   2.860000      0.0000000E+00
   2.880000      0.0000000E+00
   2.900000      0.0000000E+00
   2.920000      0.0000000E+00
   2.940000      0.0000000E+00
   2.960000      0.0000000E+00
   2.980000      0.0000000E+00
   3.000000      0.0000000E+00
   3.020000      0.0000000E+00
   3.040000      0.0000000E+00
   3.060000      0.0000000E+00
   3.080000      0.0000000E+00
   3.100000      0.0000000E+00
   3.120000      0.0000000E+00
   3.140000      0.0000000E+00
   3.160000      0.0000000E+00
   3.180000      0.0000000E+00
   3.200000      0.0000000E+00
   3.220000      0.0000000E+00
   3.240000      0.0000000E+00
   3.260000      0.0000000E+00
   3.280000      0.0000000E+00
   3.300000      0.0000000E+00
   3.320000      0.0000000E+00
   3.340000      0.0000000E+00
   3.360000      0.0000000E+00
   3.380000      0.0000000E+00
   3.400000      0.0000000E+00
   3.420000      0.0000000E+00
   3.440000      0.0000000E+00
   3.460000      0.0000000E+00
   3.480000      0.0000000E+00
   3.500000      0.0000000E+00
   3.520000      0.0000000E+00
   3.540000      0.0000000E+00
   3.560000      0.0000000E+00
   3.580000      0.0000000E+00
   3.600000      0.0000000E+00
   3.620000      0.0000000E+00
   3.640000      0.0000000E+00
   3.660000      0.0000000E+00
   3.680000      0.0000000E+00
   3.700000      0.0000000E+00
   3.720000      0.0000000E+00
   3.740000      0.0000000E+00
   3.760000      0.0000000E+00
   3.780000      0.0000000E+00
   3.800000      0.0000000E+00
   3.820000      0.0000000E+00
   3.840000      0.0000000E+00
   3.860000      0.0000000E+00
   3.880000      0.0000000E+00
   3.900000      0.0000000E+00
   3.920000      0.0000000E+00
   3.940000      0.0000000E+00
   3.960000      0.0000000E+00
   3.980000      0.0000000E+00
   4.000000      0.0000000E+00
   4.020000      0.0000000E+00
   4.040000      0.0000000E+00
   4.060000      0.0000000E+00
   4.080000      0.0000000E+00
   4.100000      0.0000000E+00
   4.120000      0.0000000E+00
   4.140000      0.0000000E+00
   4.160000      0.0000000E+00
   4.180000      0.0000000E+00
   4.200000      0.0000000E+00
   4.220000      0.0000000E+00
   4.240000      0.0000000E+00
   4.260000      0.0000000E+00
   4.280000      0.0000000E+00
   4.300000      0.0000000E+00
   4.320000      0.0000000E+00
   4.340000      0.0000000E+00
   4.360000      0.0000000E+00
   4.380000      0.0000000E+00
   4.400000      0.0000000E+00
   4.420000      0.0000000E+00
   4.440000      0.0000000E+00
   4.460000      0.0000000E+00
   4.480000      0.0000000E+00
   4.500000      0.0000000E+00
   4.520000      0.0000000E+00
   4.540000      0.0000000E+00
   4.560000      0.0000000E+00
   4.580000      0.0000000E+00
   4.600000      0.0000000E+00
   4.620000      0.0000000E+00
   4.640000      0.0000000E+00
   4.660000      0.0000000E+00
   4.680000      0.0000000E+00
   4.700000      0.0000000E+00
   4.720000      0.0000000E+00
   4.740000      2.0040705E-38
   4.760000      4.5193246E-38
   4.780000      5.6879876E-38
   4.800000      3.6684214E-38
   4.820000     -2.6903442E-38
   4.840000     -1.1167718E-37
   4.860000     -1.6360374E-37
   4.880000     -4.8288510E-38
   4.900000      1.5777085E-37
   4.920000      2.4077534E-37
   4.940000     -3.0694095E-37
   4.960000     -1.1918387E-36
   4.980000     -1.6669888E-36
   5.000000     -8.2777413E-37
   5.020000      9.0053376E-37
   5.040000      1.5478041E-36
   5.060000     -1.0408210E-36
   5.080000     -6.0186272E-36
   5.100000     -7.4730992E-36
   5.120000      1.2992354E-37
   5.140000      1.4067539E-35
   5.160000      1.8469282E-35
   5.180000      1.5992856E-36
   5.200000     -3.2287234E-35
   5.220000     -4.7906512E-35
   5.240000     -1.4565570E-35
   5.260000      5.9325352E-35
   5.280000      1.1099053E-34
   5.300000      6.8974840E-35
   5.320000     -7.3506916E-35
   5.340000     -2.1392014E-34
   5.360000     -2.0045416E-34
   5.380000      3.1206270E-35
   5.400000      3.4772209E-34
   5.420000      4.6068019E-34
   5.440000      1.5162372E-34
   5.460000     -4.6993771E-34
   5.480000     -9.2033145E-34
   5.500000     -6.5439844E-34
   5.520000      4.0981012E-34
   5.540000      1.5833874E-33
   5.560000      1.7301442E-33
   5.580000      1.9986370E-34
   5.600000     -2.2788132E-33
   5.620000     -3.6667386E-33
   5.640000     -2.0386883E-33
   5.660000      2.4212107E-33
   5.680000      6.5923927E-33
   5.700000      6.1527285E-33
   5.720000     -6.5016868E-34
   5.740000     -1.0020723E-32
   5.760000     -1.3801586E-32
   5.780000     -5.5942610E-33
   5.800000      1.2015403E-32
   5.820000      2.5855380E-32
   5.840000      2.0406422E-32
   5.860000     -7.8079560E-33
   5.880000     -4.1223588E-32
   5.900000     -4.9077589E-32
   5.920000     -1.1957018E-32
   5.940000      5.3789646E-32
   5.960000      9.6103128E-32
   5.980000      6.2685969E-32
   6.000000     -4.7398651E-32
   6.020000     -1.5990062E-31
   6.040000     -1.6523247E-31
   6.060000     -1.0801487E-32
   6.080000      2.2215038E-31
   6.100000      3.3971044E-31
   6.120000      1.7643953E-31
   6.140000     -2.3006341E-31
   6.160000     -5.8808280E-31
   6.180000     -5.2752674E-31
   6.200000      7.2236843E-32
   6.220000      8.5808661E-31
   6.240000      1.1455784E-30
   6.260000      4.4456011E-31
   6.280000     -9.8251025E-31
   6.300000     -2.0591514E-30
   6.320000     -1.5978982E-30
   6.340000      5.9628625E-31
   6.360000      3.1259368E-30
   6.380000      3.6931512E-30
   6.400000      9.4567467E-31
   6.420000     -3.8335936E-30
   6.440000     -6.8869856E-30
   6.460000     -4.5882343E-30
   6.480000      3.0249530E-30
   6.500000      1.0813398E-29
   6.520000      1.1412078E-29
   6.540000      1.3824477E-30
   6.560000     -1.3946188E-29
   6.580000     -2.2091614E-29
   6.600000     -1.2488523E-29
   6.620000      1.2713124E-29
   6.640000      3.5728095E-29
   6.660000      3.3930203E-29
   6.680000     -5.8694737E-31
   6.700000     -4.7859573E-29
   6.720000     -6.8226839E-29
   6.740000     -3.2234699E-29
   6.760000      4.7723440E-29
   6.780000      1.1322728E-28
   6.800000      9.7396883E-29
   6.820000     -1.5489281E-29
   6.840000     -1.5612945E-28
   6.860000     -2.0345998E-28
   6.880000     -7.8717855E-29
   6.900000      1.6536315E-28
   6.920000      3.4544105E-28
   6.940000      2.7065354E-28
   6.960000     -8.2448808E-29
   6.980000     -4.8735937E-28
   7.000000     -5.8766132E-28
   7.020000     -1.8089661E-28
   7.040000      5.3870215E-28
   7.060000      1.0184377E-27
   7.080000      7.3067562E-28
   7.100000     -3.3115612E-28
   7.120000     -1.4629672E-27
   7.140000     -1.6492792E-27
   7.160000     -3.8874489E-28
   7.180000      1.6663421E-27
   7.200000      2.9093423E-27
   7.220000      1.9233130E-27
   7.240000     -1.1562292E-27
   7.260000     -4.2347066E-27
   7.280000     -4.5057651E-27
   7.300000     -7.7150274E-28
   7.320000      4.9229604E-27
   7.340000      8.0629550E-27
   7.360000      4.9454511E-27
   7.380000     -3.6861860E-27
   7.400000     -1.1843801E-26
   7.420000     -1.1993613E-26
   7.440000     -1.3714195E-27
   7.460000      1.3957994E-26
   7.480000      2.1708495E-26
   7.500000      1.2447286E-26
   7.520000     -1.0980475E-26
   7.540000     -3.2073913E-26
   7.560000     -3.1158755E-26
   7.580000     -2.0577462E-27
   7.600000      3.8093295E-26
   7.620000      5.6866252E-26
   7.640000      3.0788714E-26
   7.660000     -3.0863976E-26
   7.680000     -8.4188074E-26
   7.700000     -7.9136400E-26
   7.720000     -2.2479680E-27
   7.740000      1.0016706E-25
   7.760000      1.4501596E-25
   7.780000      7.5103293E-26
   7.800000     -8.2296157E-26
   7.820000     -2.1426155E-25
   7.840000     -1.9663491E-25
   7.860000     -4.9987300E-28
   7.880000      2.5409649E-25
   7.900000      3.6023669E-25
   7.920000      1.8108979E-25
   7.940000     -2.0916787E-25
   7.960000     -5.2937635E-25
   7.980000     -4.7865516E-25
   8.000000      5.2029194E-27
   8.020000      6.2294359E-25
   8.040000      8.7303207E-25
   8.060000      4.3306496E-25
   8.080000     -5.0802697E-25
   8.100000     -1.2714285E-24
   8.120000     -1.1435017E-24
   8.140000      1.2355626E-26
   8.160000      1.4772740E-24
   8.180000      2.0661991E-24
   8.200000      1.0290203E-24
   8.220000     -1.1802728E-24
   8.240000     -2.9701453E-24
   8.260000     -2.6817512E-24
   8.280000     -5.1708966E-27
   8.300000      3.3918917E-24
   8.320000      4.7765102E-24
   8.340000      2.4242772E-24
   8.360000     -2.6292537E-24
   8.380000     -6.7546467E-24
   8.400000     -6.1706574E-24
   8.420000     -1.5263739E-25
   8.440000      7.5536279E-24
   8.460000      1.0790719E-23
   8.480000      5.6454097E-24
   8.500000     -5.6283766E-24
   8.520000     -1.4968565E-23
   8.540000     -1.3923515E-23
   8.560000     -7.6970707E-25
   8.580000      1.6330618E-23
   8.600000      2.3819379E-23
   8.620000      1.2949713E-23
   8.640000     -1.1580837E-23
   8.660000     -3.2317413E-23
   8.680000     -3.0755961E-23
   8.700000     -2.7983500E-24
   8.720000      3.4278862E-23
   8.740000      5.1315345E-23
   8.760000      2.9117433E-23
   8.780000     -2.2915226E-23
   8.800000     -6.7948749E-23
   8.820000     -6.6365618E-23
   8.840000     -8.5717665E-24
   8.860000      6.9885787E-23
   8.880000      1.0779924E-22
   8.900000      6.3947148E-23
   8.920000     -4.3592775E-23
   8.940000     -1.3908683E-22
   8.960000     -1.3971007E-22
   8.980000     -2.3539272E-23
   9.000000      1.3833277E-22
   9.020000      2.2063495E-22
   9.040000      1.3689906E-22
   9.060000     -7.9506867E-23
   9.080000     -2.7695558E-22
   9.100000     -2.8655767E-22
   9.120000     -5.9611543E-23
   9.140000      2.6572304E-22
   9.160000      4.3960848E-22
   9.180000      2.8510743E-22
   9.200000     -1.3880534E-22
   9.220000     -5.3653947E-22
   9.240000     -5.7230205E-22
   9.260000     -1.4110755E-22
   9.280000      4.9598606E-22
   9.300000      8.5322206E-22
   9.320000      5.7741387E-22
   9.340000     -2.3183913E-22
   9.360000     -1.0127969E-21
   9.380000     -1.1139032E-21
   9.400000     -3.1558384E-22
   9.420000      9.0157527E-22
   9.440000      1.6153763E-21
   9.460000      1.1375624E-21
   9.480000     -3.7100676E-22
   9.500000     -1.8669876E-21
   9.520000     -2.1145594E-21
   9.540000     -6.6879229E-22
   9.560000      1.6041974E-21
   9.580000      2.9900107E-21
   9.600000      2.1782895E-21
   9.620000     -5.7904582E-22
   9.640000     -3.3787060E-21
   9.660000     -3.9232474E-21
   9.680000     -1.3415603E-21
   9.700000      2.8244284E-21
   9.720000      5.4389763E-21
   9.740000      4.0607504E-21
   9.760000     -9.1409849E-22
   9.780000     -6.0510722E-21
   9.800000     -7.1471523E-21
   9.820000     -2.5566578E-21
   9.840000      4.9781595E-21
   9.860000      9.7819423E-21
   9.880000      7.3929421E-21
   9.900000     -1.5283338E-21
   9.920000     -1.0804741E-20
   9.940000     -1.2837488E-20
   9.960000     -4.6301398E-21
   9.980000      8.8894443E-21
   10.00000      1.7498148E-20
   10.02000      1.3175648E-20
   10.04000     -2.8463681E-21
   10.06000     -1.9411615E-20
   10.08000     -2.2875736E-20
   10.10000     -7.9744024E-21
   10.12000      1.6267896E-20
   10.14000      3.1410901E-20
   10.16000      2.3193934E-20
   10.18000     -5.8367140E-21
   10.20000     -3.5347318E-20
   10.22000     -4.0852912E-20
   10.24000     -1.3330516E-20
   10.26000      3.0405482E-20
   10.28000      5.6914802E-20
   10.30000      4.0896356E-20
   10.32000     -1.2222460E-20
   10.34000     -6.5084522E-20
   10.36000     -7.3568649E-20
   10.38000     -2.2279434E-20
   10.40000      5.7258418E-20
   10.42000      1.0406785E-19
   10.44000      7.2965654E-20
   10.46000     -2.4866897E-20
   10.48000     -1.2059681E-19
   10.50000     -1.3413960E-19
   10.52000     -3.8606090E-20
   10.54000      1.0734166E-19
   10.56000      1.9206308E-19
   10.58000      1.3355393E-19
   10.60000     -4.7003417E-20
   10.62000     -2.2332845E-19
   10.64000     -2.4869896E-19
   10.66000     -7.3345323E-20
   10.68000      1.9622705E-19
   10.70000      3.5568441E-19
   10.72000      2.5278254E-19
   10.74000     -7.7642151E-20
   10.76000     -4.0729368E-19
   10.78000     -4.6561361E-19
   10.80000     -1.5363008E-19
   10.82000      3.4311504E-19
   10.84000      6.5341551E-19
   10.86000      4.8906170E-19
   10.88000     -1.0480917E-19
   10.90000     -7.2495965E-19
   10.92000     -8.7207388E-19
   10.94000     -3.3869295E-19
   10.96000      5.6896362E-19
   10.98000      1.1851164E-18
   11.00000      9.5752732E-19
   11.02000     -8.5518901E-20
   11.04000     -1.2525538E-18
   11.06000     -1.6261297E-18
   11.08000     -7.6063807E-19
   11.10000      8.7425102E-19
   11.12000      2.1062165E-18
   11.14000      1.8748042E-18
   11.16000      1.0129960E-19
   11.18000     -2.0731160E-18
   11.20000     -2.9829738E-18
   11.22000     -1.6761170E-18
   11.24000      1.2000533E-18
   11.26000      3.6325194E-18
   11.28000      3.6061489E-18
   11.30000      7.0760804E-19
   11.32000     -3.2652037E-18
   11.34000     -5.3457205E-18
   11.36000     -3.5510525E-18
   11.38000      1.3733149E-18
   11.40000      6.0714122E-18
   11.42000      6.7843910E-18
   11.44000      2.2572022E-18
   11.46000     -4.8377497E-18
   11.48000     -9.3398220E-18
   11.50000     -7.2515450E-18
   11.52000      9.0772753E-19
   11.54000      9.7446426E-18
   11.56000      1.2418286E-17
   11.58000      5.7840501E-18
   11.60000     -6.5109090E-18
   11.62000     -1.5759854E-17
   11.64000     -1.4195409E-17
   11.66000     -1.2446258E-18
   11.68000      1.4832118E-17
   11.70000      2.1962747E-17
   11.72000      1.3095081E-17
   11.74000     -7.4635944E-18
   11.76000     -2.5567134E-17
   11.78000     -2.6689039E-17
   11.80000     -7.1994922E-18
   11.82000      2.1054685E-17
   11.84000      3.7504395E-17
   11.86000      2.7475850E-17
   11.88000     -5.4703315E-18
   11.90000     -3.9429417E-17
   11.92000     -4.8262144E-17
   11.94000     -2.1181094E-17
   11.96000      2.6517058E-17
   11.98000      6.1236055E-17
   12.00000      5.4190521E-17
   12.02000      4.3326633E-18
   12.04000     -5.6603063E-17
   12.06000     -8.3509190E-17
   12.08000     -5.0511089E-17
   12.10000      2.6287568E-17
   12.12000      9.4813136E-17
   12.14000      1.0143592E-16
   12.16000      3.1679654E-17
   12.18000     -7.2902452E-17
   12.20000     -1.3802018E-16
   12.22000     -1.0824728E-16
   12.24000      8.1301994E-18
   12.26000      1.3598786E-16
   12.28000      1.8035183E-16
   12.30000      9.5225714E-17
   12.32000     -7.4521535E-17
   12.34000     -2.1363006E-16
   12.36000     -2.1284433E-16
   12.38000     -5.1885271E-17
   12.40000      1.7228126E-16
   12.42000      3.0091325E-16
   12.44000      2.2325959E-16
   12.46000     -3.3543266E-17
   12.48000     -3.0438195E-16
   12.50000     -3.8894914E-16
   12.52000     -1.9582725E-16
   12.54000      1.7323485E-16
   12.56000      4.7017274E-16
   12.58000      4.6302749E-16
   12.60000      1.1053575E-16
   12.62000     -3.7859848E-16
   12.64000     -6.6265563E-16
   12.66000     -4.9976336E-16
   12.68000      5.8096249E-17
   12.70000      6.5896135E-16
   12.72000      8.6531393E-16
   12.74000      4.6408194E-16
   12.76000     -3.4186194E-16
   12.78000     -1.0197297E-15
   12.80000     -1.0491396E-15
   12.82000     -3.0771730E-16
   12.84000      7.7723643E-16
   12.86000      1.4584777E-15
   12.88000      1.1696035E-15
   12.90000     -2.9582057E-17
   12.92000     -1.3991019E-15
   12.94000     -1.9565896E-15
   12.96000     -1.1616651E-15
   12.98000      6.1719426E-16
   13.00000      2.2298627E-15
   13.02000      2.4653425E-15
   13.04000      9.3050296E-16
   13.06000     -1.5324148E-15
   13.08000     -3.2675461E-15
   13.10000     -2.8892446E-15
   13.12000     -3.3885677E-16
   13.14000      2.8626829E-15
   13.16000      4.4774212E-15
   13.18000      3.0731872E-15
   13.20000     -8.0184538E-16
   13.22000     -4.7055442E-15
   13.24000     -5.7854036E-15
   13.26000     -2.7977977E-15
   13.28000      2.7256159E-15
   13.30000      7.1511968E-15
   13.32000      7.0591637E-15
   13.34000      1.7762887E-15
   13.36000     -5.6864079E-15
   13.38000     -1.0231747E-14
   13.40000     -8.0556518E-15
   13.42000      3.6610442E-16
   13.44000      9.9235822E-15
   13.46000      1.3837865E-14
   13.48000      8.3277357E-15
   13.50000     -4.1432718E-15
   13.52000     -1.5637460E-14
   13.54000     -1.7628900E-14
   13.56000     -7.1202979E-15
   13.58000      1.0265573E-14
   13.60000      2.2972541E-14
   13.62000      2.0968927E-14
   13.64000      3.3216109E-15
   13.66000     -1.9625162E-14
   13.68000     -3.1951435E-14
   13.70000     -2.2882680E-14
   13.72000      4.4763836E-15
   13.74000      3.3114516E-14
   13.76000      4.2259602E-14
   13.78000      2.1960708E-14
   13.80000     -1.7833128E-14
   13.82000     -5.1257497E-14
   13.84000     -5.2825322E-14
   13.86000     -1.6129833E-14
   13.88000      3.8339981E-14
   13.90000      7.3779741E-14
   13.92000      6.1306266E-14
   13.94000      2.3312479E-15
   13.96000     -6.7604844E-14
   13.98000     -9.9331818E-14
   14.00000     -6.3782550E-14
   14.02000      2.3611794E-14
   14.04000      1.0719529E-13
   14.06000      1.2543306E-13
   14.08000      5.4934495E-14
   14.10000     -6.6530528E-14
   14.12000     -1.5813093E-13
   14.14000     -1.4834131E-13
   14.16000     -2.8601690E-14
   14.18000      1.3073608E-13
   14.20000      2.1960458E-13
   14.22000      1.6237143E-13
   14.24000     -2.1827653E-14
   14.26000     -2.1863598E-13
   14.28000     -2.8723568E-13
   14.30000     -1.5862986E-13
   14.32000      1.0362508E-13
   14.34000      3.2989849E-13
   14.36000      3.5174394E-13
   14.38000      1.2391058E-13
   14.40000     -2.2518380E-13
   14.42000     -4.6135985E-13
   14.44000     -3.9872901E-13
   14.46000     -4.0695654E-14
   14.48000      3.9587902E-13
   14.50000      6.0724543E-13
   14.52000      4.0975437E-13
   14.54000     -1.1095352E-13
   14.56000     -6.2425043E-13
   14.58000     -7.5882426E-13
   14.60000     -3.6456751E-13
   14.62000      3.4869576E-13
   14.64000      9.1243506E-13
   14.66000      9.0058841E-13
   14.68000      2.4140951E-13
   14.70000     -6.8260724E-13
   14.72000     -1.2471129E-12
   14.74000     -1.0002871E-12
   14.76000     -9.2434690E-15
   14.78000      1.1187318E-12
   14.80000      1.5984234E-12
   14.82000      1.0038554E-12
   14.84000     -3.8072128E-13
   14.86000     -1.6711526E-12
   14.88000     -1.9361578E-12
   14.90000     -8.5512679E-13
   14.92000      9.7498312E-13
   14.94000      2.3475538E-12
   14.96000      2.2279058E-12
   14.98000      5.1163159E-13
   15.00000     -1.7836545E-12
   15.02000     -3.1011415E-12
   15.04000     -2.3844644E-12
   15.06000      1.0871253E-13
   15.08000      2.8262254E-12
   15.10000      3.8636043E-12
   15.12000      2.2733198E-12
   15.14000     -1.1438378E-12
   15.16000     -4.1906461E-12
   15.18000     -4.6585058E-12
   15.20000     -1.8891683E-12
   15.22000      2.5718321E-12
   15.24000      5.8013225E-12
   15.26000      5.3957797E-12
   15.28000      1.2250448E-12
   15.30000     -4.2133137E-12
   15.32000     -7.2520991E-12
   15.34000     -5.5055066E-12
   15.36000      3.0226527E-13
   15.38000      6.4923405E-12
   15.40000      8.6880329E-12
   15.42000      4.8227147E-12
   15.44000     -3.1338055E-12
   15.46000     -1.0089692E-11
   15.48000     -1.1040498E-11
   15.50000     -4.5768909E-12
   15.52000      5.7354182E-12
   15.54000      1.3302276E-11
   15.56000      1.2770810E-11
   15.58000      3.8826728E-12
   15.60000     -7.8310023E-12
   15.62000     -1.4336022E-11
   15.64000     -1.0486307E-11
   15.66000      2.0299405E-12
   15.68000      1.5106470E-11
   15.70000      1.9176969E-11
   15.72000      9.7431785E-12
   15.74000     -8.9059819E-12
   15.76000     -2.5665012E-11
   15.78000     -2.9494126E-11
   15.80000     -1.6942725E-11
   15.82000      4.8343677E-12
   15.84000      2.2103739E-11
   15.86000      2.3519721E-11
   15.88000      8.2811284E-12
   15.90000     -1.2289297E-11
   15.92000     -2.1524501E-11
   15.94000     -8.7073126E-12
   15.96000      2.2493875E-11
   15.98000      5.4597309E-11
   16.00000      6.6436988E-11
   16.02000      4.6863638E-11
   16.04000      2.9910278E-12
   16.06000     -4.3145404E-11
   16.08000     -6.8247984E-11
   16.10000     -6.3233946E-11
   16.12000     -3.9985387E-11
   16.14000     -2.3881296E-11
   16.16000     -3.5963170E-11
   16.18000     -7.6171472E-11
   16.20000     -1.1950799E-10
   16.22000     -1.2924767E-10
   16.24000     -7.9993838E-11
   16.26000      2.4092285E-11
   16.28000      1.4864776E-10
   16.30000      2.4796665E-10
   16.32000      2.9213582E-10
   16.34000      2.8461800E-10
   16.36000      2.5753155E-10
   16.38000      2.4621272E-10
   16.40000      2.5920474E-10
   16.42000      2.6458366E-10
   16.44000      2.0431196E-10
   16.46000      3.0153827E-11
   16.48000     -2.6075173E-10
   16.50000     -6.1445088E-10
   16.52000     -9.4249719E-10
   16.54000     -1.1657503E-09
   16.56000     -1.2520294E-09
   16.58000     -1.2222872E-09
   16.60000     -1.1197981E-09
   16.62000     -9.6207442E-10
   16.64000     -7.0898643E-10
   16.66000     -2.7244493E-10
   16.68000      4.3330958E-10
   16.70000      1.4297803E-09
   16.72000      2.6403362E-09
   16.74000      3.9087036E-09
   16.76000      5.0610414E-09
   16.78000      5.9730541E-09
   16.80000      6.5977073E-09
   16.82000      6.9329169E-09
   16.84000      6.9481989E-09
   16.86000      6.5188241E-09
   16.88000      5.4146478E-09
   16.90000      3.3568279E-09
   16.92000      1.0977044E-10