  -2.400000      0.0000000E+00
  -2.380000      0.0000000E+00
  -2.360000      0.0000000E+00
  -2.340000      0.0000000E+00
  -2.320000      0.0000000E+00
  -2.300000      0.0000000E+00
  -2.280000      0.0000000E+00
  -2.260000      0.0000000E+00
  -2.240000      0.0000000E+00
  -2.220000      0.0000000E+00
  -2.200000      0.0000000E+00
  -2.180000      2.4925288E-26
  -2.160000      5.4438369E-25
  -2.140000      4.2733522E-24
  -2.120000      1.6352244E-23
  -2.100000      2.2346366E-23
  -2.080000     -8.2753585E-23
  -2.060000     -5.2656367E-22
  -2.040000     -1.2757073E-21
  -2.020000     -8.7761329E-22
  -2.000000      4.3983867E-21
  -1.980000      1.7271819E-20
  -1.960000      2.8478559E-20
  -1.940000      5.3806972E-21
  -1.920000     -9.3419633E-20
  -1.900000     -2.5024245E-19
  -1.880000     -2.9605789E-19
  -1.860000      7.5053858E-20
  -1.840000      1.0231692E-18
  -1.820000      2.0579935E-18
  -1.800000      1.7914095E-18
  -1.780000     -1.3187767E-18
  -1.760000     -7.0281086E-18
  -1.740000     -1.1392387E-17
  -1.720000     -7.4143292E-18
  -1.700000      9.8535583E-18
  -1.680000      3.5376096E-17
  -1.660000      4.9685963E-17
  -1.640000      2.5856677E-17
  -1.620000     -4.9400695E-17
  -1.600000     -1.4949185E-16
  -1.580000     -1.9750159E-16
  -1.560000     -9.5155522E-17
  -1.540000      2.0078672E-16
  -1.520000      5.8321104E-16
  -1.500000      7.5540717E-16
  -1.480000      3.4530187E-16
  -1.460000     -7.8528880E-16
  -1.440000     -2.1636516E-15
  -1.420000     -2.6080310E-15
  -1.400000     -8.1367388E-16
  -1.380000      3.3393452E-15
  -1.360000      7.5368060E-15
  -1.340000      7.3496905E-15
  -1.320000     -7.3860484E-16
  -1.300000     -1.4587803E-14
  -1.280000     -2.3895260E-14
  -1.260000     -1.4814891E-14
  -1.240000      1.7518849E-14
  -1.220000      5.6362958E-14
  -1.200000      6.4951611E-14
  -1.180000      1.1580769E-14
  -1.160000     -9.2282769E-14
  -1.140000     -1.7385527E-13
  -1.120000     -1.3489913E-13
  -1.100000      6.1231781E-14
  -1.080000      3.1273134E-13
  -1.060000      4.0197492E-13
  -1.040000      1.5325312E-13
  -1.020000     -3.6412805E-13
  -1.000000     -7.7701485E-13
 -0.9800000     -6.3294411E-13
 -0.9600000      1.8109787E-13
 -0.9400000      1.1657199E-12
 -0.9200000      1.4344402E-12
 -0.9000000      4.3269200E-13
 -0.8800000     -1.3719303E-12
 -0.8600000     -2.5479074E-12
 -0.8400000     -1.7504734E-12
 -0.8200000      9.2063813E-13
 -0.8000000      3.5243004E-12
 -0.7800000      3.5901562E-12
 -0.7600000      3.9223515E-13
 -0.7400000     -3.8164008E-12
 -0.7200000     -5.2045972E-12
 -0.7000000     -1.7810373E-12
 -0.6800000      4.0877575E-12
 -0.6600000      6.9437182E-12
 -0.6400000      3.0772078E-12
 -0.6200000     -5.1125514E-12
 -0.6000000     -1.0002790E-11
 -0.5800000     -5.4697210E-12
 -0.5600000      6.0618281E-12
 -0.5400000      1.3788307E-11
 -0.5200000      7.9468125E-12
 -0.5000000     -8.9469291E-12
 -0.4800000     -2.0836497E-11
 -0.4600000     -1.1527895E-11
 -0.4400000      1.7070338E-11
 -0.4200000      4.0252714E-11
 -0.4000000      2.9179725E-11
 -0.3800000     -1.9230697E-11
 -0.3600000     -6.9370086E-11
 -0.3400000     -7.0395655E-11
 -0.3200000     -3.5084986E-12
 -0.3000000      8.8256638E-11
 -0.2800000      1.2364465E-10
 -0.2600000      5.2239574E-11
 -0.2400000     -8.7226795E-11
 -0.2200000     -1.8023485E-10
 -0.2000000     -1.2728611E-10
 -0.1800000      5.7090388E-11
 -0.1600000      2.3139179E-10
 -0.1400000      2.3268441E-10
 -0.1200000      2.5352541E-11
 -0.1000000     -2.4020358E-10
 -7.9999998E-02 -3.3298694E-10
 -5.9999999E-02 -1.4214632E-10
 -3.9999999E-02  1.9998331E-10
 -2.0000000E-02  4.0257467E-10
  0.0000000E+00  2.6293173E-10
  2.0000000E-02 -1.3291110E-10
  3.9999999E-02 -4.5263823E-10
  5.9999999E-02 -3.9770348E-10
  7.9999998E-02  1.3269121E-11
  0.1000000      4.2874493E-10
  0.1200000      4.6594661E-10
  0.1400000      7.7117708E-11
  0.1600000     -3.7105122E-10
  0.1800000     -4.2164966E-10
  0.2000000      1.4664832E-11
  0.2200000      5.1480376E-10
  0.2400000      5.1104582E-10
  0.2600000     -1.2162354E-10
  0.2800000     -8.3329843E-10
  0.3000000     -8.4009721E-10
  0.3200000      7.9930153E-11
  0.3400000      1.1941448E-09
  0.3600000      1.3366022E-09
  0.3800000      2.5971272E-11
  0.4000000     -1.8277810E-09
  0.4200000     -2.4587303E-09
  0.4400000     -7.9573831E-10
  0.4600000      2.2705788E-09
  0.4800000      4.2285797E-09
  0.5000000      2.9448095E-09
  0.5200000     -1.2266718E-09
  0.5400000     -5.2125793E-09
  0.5600000     -5.4776925E-09
  0.5800000     -1.1550658E-09
  0.6000000      4.6885966E-09
  0.6200000      7.1481621E-09
  0.6400000      3.5836210E-09
  0.6600000     -3.6814314E-09
  0.6800000     -8.7162775E-09
  0.7000000     -6.7393402E-09
  0.7200000      1.5443047E-09
  0.7400000      9.9406288E-09
  0.7600000      1.1570712E-08
  0.7800000      4.6915440E-09
  0.8000000     -5.5298832E-09
  0.8200000     -1.1159926E-08
  0.8400000     -8.2495273E-09
  0.8600000     -2.8516275E-10
  0.8800000      4.9561830E-09
  0.9000000      2.5838800E-09
  0.9200000     -4.6849253E-09
  0.9400000     -8.8774277E-09
  0.9600000     -4.3979185E-09
  0.9800000      6.1099343E-09
   1.000000      1.3651365E-08
   1.020000      1.1460280E-08
   1.040000      2.3871880E-09
   1.060000     -2.6726550E-09
   1.080000      4.7950541E-09
   1.100000      2.0725706E-08
   1.120000      2.8979031E-08
   1.140000      1.4251366E-08
   1.160000     -2.2898710E-08
   1.180000     -6.3297804E-08
   1.200000     -8.3942062E-08
   1.220000     -7.9753129E-08
   1.240000     -7.3137890E-08
   1.260000     -1.0012330E-07
   1.280000     -1.8158261E-07
   1.300000     -3.0317682E-07
   1.320000     -4.2350814E-07
   1.340000     -5.0756830E-07
   1.360000     -5.5960152E-07
   1.380000     -6.2658387E-07
   1.400000     -7.6581057E-07
   1.420000     -1.0007826E-06
   1.440000     -1.3024485E-06
   1.460000     -1.6145873E-06
   1.480000     -1.9055893E-06
   1.500000     -2.2044469E-06
   1.520000     -2.5889565E-06
   1.540000     -3.1330671E-06
   1.560000     -3.8562407E-06
   1.580000     -4.7188437E-06
   1.600000     -5.6703111E-06
   1.620000     -6.7110836E-06
   1.640000     -7.9149040E-06
   1.660000     -9.3900117E-06
   1.680000     -1.1210931E-05
   1.700000     -1.3381065E-05
   1.720000     -1.5862641E-05
   1.740000     -1.8652032E-05
   1.760000     -2.1835278E-05
   1.780000     -2.5570997E-05
   1.800000     -3.0009856E-05
   1.820000     -3.5219193E-05
   1.840000     -4.1183961E-05
   1.860000     -4.7892692E-05
   1.880000     -5.5439759E-05
   1.900000     -6.4051950E-05
   1.920000     -7.4005089E-05
   1.940000     -8.5492604E-05
   1.960000     -9.8558987E-05
   1.980000     -1.1316729E-04
   2.000000     -1.2935806E-04
   2.020000     -1.4737042E-04
   2.040000     -1.6761386E-04
   2.060000     -1.9049653E-04
   2.080000     -2.1624184E-04
   2.100000     -2.4484858E-04
   2.120000     -2.7624200E-04
   2.140000     -3.1050405E-04
   2.160000     -3.4799305E-04
   2.180000     -3.8923993E-04
   2.200000     -4.3468934E-04
   2.220000     -4.8448771E-04
   2.240000     -5.3849519E-04
   2.260000     -5.9652235E-04
   2.280000     -6.5860269E-04
   2.300000     -7.2507188E-04
   2.320000     -7.9637585E-04
   2.340000     -8.7275036E-04
   2.360000     -9.5403020E-04
   2.380000     -1.0397446E-03
   2.400000     -1.1294226E-03
   2.420000     -1.2228509E-03
   2.440000     -1.3200606E-03
   2.460000     -1.4210417E-03
   2.480000     -1.5254157E-03
   2.500000     -1.6323428E-03
   2.520000     -1.7407460E-03
   2.540000     -1.8496653E-03
   2.560000     -1.9584368E-03
   2.580000     -2.0665315E-03
   2.600000     -2.1731760E-03
   2.620000     -2.2770814E-03
   2.640000     -2.3765229E-03
   2.660000     -2.4697282E-03
   2.680000     -2.5552565E-03
   2.700000     -2.6320396E-03
   2.720000     -2.6990327E-03
   2.740000     -2.7547588E-03
   2.760000     -2.7971519E-03
   2.780000     -2.8238744E-03
   2.800000     -2.8328882E-03
   2.820000     -2.8228262E-03
   2.840000     -2.7928455E-03
   2.860000     -2.7420635E-03
   2.880000     -2.6690473E-03
   2.900000     -2.5718126E-03
   2.920000     -2.4483965E-03
   2.940000     -2.2975868E-03
   2.960000     -2.1192289E-03
   2.980000     -1.9138578E-03
   3.000000     -1.6819314E-03
   3.020000     -1.4233028E-03
   3.040000     -1.1373918E-03
   3.060000     -8.2396326E-04
   3.080000     -4.8391384E-04
   3.100000     -1.1943214E-04
   3.120000      2.6660814E-04
   3.140000      6.7154586E-04
   3.160000      1.0933961E-03
   3.180000      1.5304978E-03
   3.200000      1.9806258E-03
   3.220000      2.4403026E-03
   3.240000      2.9048868E-03
   3.260000      3.3693984E-03
   3.280000      3.8294333E-03
   3.300000      4.2814491E-03
   3.320000      4.7222096E-03
   3.340000      5.1478907E-03
   3.360000      5.5536176E-03
   3.380000      5.9338734E-03
   3.400000      6.2834816E-03
   3.420000      6.5983972E-03
   3.440000      6.8756770E-03
   3.460000      7.1126982E-03
   3.480000      7.3063020E-03
   3.500000      7.4526472E-03
   3.520000      7.5479378E-03
   3.540000      7.5894804E-03
   3.560000      7.5762058E-03
   3.580000      7.5082276E-03
   3.600000      7.3857936E-03
   3.620000      7.2085252E-03
   3.640000      6.9756033E-03
   3.660000      6.6868011E-03
   3.680000      6.3435202E-03
   3.700000      5.9489594E-03
   3.720000      5.5072205E-03
   3.740000      5.0220378E-03
   3.760000      4.4961446E-03
   3.780000      3.9317990E-03
   3.800000      3.3320363E-03
   3.820000      2.7016073E-03
   3.840000      2.0467795E-03
   3.860000      1.3740951E-03
   3.880000      6.8902975E-04
   3.900000     -4.4034714E-06
   3.920000     -7.0282293E-04
   3.940000     -1.4021301E-03
   3.960000     -2.0967850E-03
   3.980000     -2.7803418E-03
   4.000000     -3.4468584E-03
   4.020000     -4.0920768E-03
   4.040000     -4.7134561E-03
   4.060000     -5.3090751E-03
   4.080000     -5.8763344E-03
   4.100000     -6.4115357E-03
   4.120000     -6.9107041E-03
   4.140000     -7.3709828E-03
   4.160000     -7.7914726E-03
   4.180000     -8.1728464E-03
   4.200000     -8.5160704E-03
   4.220000     -8.8213012E-03
   4.240000     -9.0878336E-03
   4.260000     -9.3151452E-03
   4.280000     -9.5041301E-03
   4.300000     -9.6574919E-03
   4.320000     -9.7789625E-03
   4.340000     -9.8719867E-03
   4.360000     -9.9389302E-03
   4.380000     -9.9814702E-03
   4.400000     -1.0001797E-02
   4.420000     -1.0003597E-02
   4.440000     -9.9919820E-03
   4.460000     -9.9723795E-03
   4.480000     -9.9493051E-03
   4.500000     -9.9259969E-03
   4.520000     -9.9052340E-03
   4.540000     -9.8906131E-03
   4.560000     -9.8872324E-03
   4.580000     -9.9011725E-03
   4.600000     -9.9382084E-03
   4.620000     -1.0002768E-02
   4.640000     -1.0098015E-02
   4.660000     -1.0226949E-02
   4.680000     -1.0393626E-02
   4.700000     -1.0603454E-02
   4.720000     -1.0862354E-02
   4.740000     -1.1175435E-02
   4.760000     -1.1546275E-02
   4.780000     -1.1977363E-02
   4.800000     -1.2471276E-02
   4.820000     -1.3031610E-02
   4.840000     -1.3662837E-02
   4.860000     -1.4369210E-02
   4.880000     -1.5153564E-02
   4.900000     -1.6016936E-02
   4.920000     -1.6959254E-02
   4.940000     -1.7980387E-02
   4.960000     -1.9080665E-02
   4.980000     -2.0260295E-02
   5.000000     -2.1518163E-02
   5.020000     -2.2850817E-02
   5.040000     -2.4252402E-02
   5.060000     -2.5715377E-02
   5.080000     -2.7231280E-02
   5.100000     -2.8790765E-02
   5.120000     -3.0382739E-02
   5.140000     -3.1993240E-02
   5.160000     -3.3604823E-02
   5.180000     -3.5196792E-02
   5.200000     -3.6745965E-02
   5.220000     -3.8227092E-02
   5.240000     -3.9612558E-02
   5.260000     -4.0871494E-02
   5.280000     -4.1969065E-02
   5.300000     -4.2866509E-02
   5.320000     -4.3521881E-02
   5.340000     -4.3890938E-02
   5.360000     -4.3927535E-02
   5.380000     -4.3583363E-02
   5.400000     -4.2807579E-02
   5.420000     -4.1546933E-02
   5.440000     -3.9746709E-02
   5.460000     -3.7352134E-02
   5.480000     -3.4309592E-02
   5.500000     -3.0567231E-02
   5.520000     -2.6075164E-02
   5.540000     -2.0785913E-02
   5.560000     -1.4655584E-02
   5.580000     -7.6456689E-03
   5.600000      2.7509942E-04
   5.620000      9.1294767E-03
   5.640000      1.8931083E-02
   5.660000      2.9683989E-02
   5.680000      4.1381799E-02
   5.700000      5.4006159E-02
   5.720000      6.7524880E-02
   5.740000      8.1890605E-02
   5.760000      9.7040437E-02
   5.780000      0.1128962    
   5.800000      0.1293647    
   5.820000      0.1463376    
   5.840000      0.1636910    
   5.860000      0.1812848    
   5.880000      0.1989637    
   5.900000      0.2165582    
   5.920000      0.2338872    
   5.940000      0.2507595    
   5.960000      0.2669758    
   5.980000      0.2823299    
   6.000000      0.2966104    
   6.020000      0.3096035    
   6.040000      0.3210969    
   6.060000      0.3308831    
   6.080000      0.3387626    
   6.100000      0.3445466    
   6.120000      0.3480595    
   6.140000      0.3491414    
   6.160000      0.3476520    
   6.180000      0.3434740    
   6.200000      0.3365162    
   6.220000      0.3267156    
   6.240000      0.3140385    
   6.260000      0.2984820    
   6.280000      0.2800747    
   6.300000      0.2588792    
   6.320000      0.2349922    
   6.340000      0.2085451    
   6.360000      0.1797021    
   6.380000      0.1486581    
   6.400000      0.1156373    
   6.420000      8.0890924E-02
   6.440000      4.4695806E-02
   6.460000      7.3518613E-03
   6.480000     -3.0821925E-02
   6.500000     -6.9492228E-02
   6.520000     -0.1083162    
   6.540000     -0.1469458    
   6.560000     -0.1850308    
   6.580000     -0.2222229    
   6.600000     -0.2581799    
   6.620000     -0.2925704    
   6.640000     -0.3250798    
   6.660000     -0.3554140    
   6.680000     -0.3833033    
   6.700000     -0.4085041    
   6.720000     -0.4308019    
   6.740000     -0.4500131    
   6.760000     -0.4659890    
   6.780000     -0.4786174    
   6.800000     -0.4878245    
   6.820000     -0.4935735    
   6.840000     -0.4958642    
   6.860000     -0.4947318    
   6.880000     -0.4902470    
   6.900000     -0.4825146    
   6.920000     -0.4716727    
   6.940000     -0.4578892    
   6.960000     -0.4413585    
   6.980000     -0.4222971    
   7.000000     -0.4009413    
   7.020000     -0.3775443    
   7.040000     -0.3523729    
   7.060000     -0.3257046    
   7.080000     -0.2978225    
   7.100000     -0.2690106    
   7.120000     -0.2395507    
   7.140000     -0.2097191    
   7.160000     -0.1797849    
   7.180000     -0.1500074    
   7.200000     -0.1206324    
   7.220000     -9.1889665E-02
   7.240000     -6.3990064E-02
   7.260000     -3.7124146E-02
   7.280000     -1.1461806E-02
   7.300000      1.2848000E-02
   7.320000      3.5677806E-02
   7.340000      5.6922585E-02
   7.360000      7.6500393E-02
   7.380000      9.4352275E-02
   7.400000      0.1104411    
   7.420000      0.1247498    
   7.440000      0.1372798    
   7.460000      0.1480500    
   7.480000      0.1570958    
   7.500000      0.1644683    
   7.520000      0.1702324    
   7.540000      0.1744645    
   7.560000      0.1772504    
   7.580000      0.1786824    
   7.600000      0.1788587    
   7.620000      0.1778824    
   7.640000      0.1758597    
   7.660000      0.1728993    
   7.680000      0.1691093    
   7.700000      0.1645957    
   7.720000      0.1594612    
   7.740000      0.1538049    
   7.760000      0.1477221    
   7.780000      0.1413042    
   7.800000      0.1346371    
   7.820000      0.1278002    
   7.840000      0.1208654    
   7.860000      0.1138977    
   7.880000      0.1069554    
   7.900000      0.1000918    
   7.920000      9.3354493E-02
   7.940000      8.6784482E-02
   7.960000      8.0415830E-02
   7.980000      7.4275777E-02
   8.000000      6.8386108E-02
   8.020000      6.2764630E-02
   8.040000      5.7425734E-02
   8.060000      5.2379820E-02
   8.080000      4.7632571E-02
   8.100000      4.3184876E-02
   8.120000      3.9034098E-02
   8.140000      3.5175715E-02
   8.160000      3.1604283E-02
   8.180000      2.8313115E-02
   8.200000      2.5293246E-02
   8.220000      2.2532970E-02
   8.240000      2.0018587E-02
   8.260000      1.7735982E-02
   8.280000      1.5671778E-02
   8.300000      1.3813232E-02
   8.320000      1.2147187E-02
   8.340000      1.0659182E-02
   8.360000      9.3337437E-03
   8.380000      8.1556682E-03
   8.400000      7.1112653E-03
   8.420000      6.1885226E-03
   8.440000      5.3761825E-03
   8.460000      4.6626949E-03
   8.480000      4.0360657E-03
   8.500000      3.4847690E-03
   8.520000      2.9988827E-03
   8.540000      2.5704498E-03
   8.560000      2.1927922E-03
   8.580000      1.8594739E-03
   8.600000      1.5638606E-03
   8.620000      1.2996189E-03
   8.640000      1.0616081E-03
   8.660000      8.4630743E-04
   8.680000      6.5140263E-04
   8.700000      4.7493863E-04
   8.720000      3.1478566E-04
   8.740000      1.6879299E-04
   8.760000      3.5346449E-05
   8.780000     -8.6283755E-05
   8.800000     -1.9614641E-04
   8.820000     -2.9416621E-04
   8.840000     -3.8056940E-04
   8.860000     -4.5588569E-04
   8.880000     -5.2064535E-04
   8.900000     -5.7512138E-04
   8.920000     -6.1934040E-04
   8.940000     -6.5330084E-04
   8.960000     -6.7718938E-04
   8.980000     -6.9146528E-04
   9.000000     -6.9683278E-04
   9.020000     -6.9416937E-04
   9.040000     -6.8441912E-04
   9.060000     -6.6843908E-04
   9.080000     -6.4687018E-04
   9.100000     -6.2017579E-04
   9.120000     -5.8889901E-04
   9.140000     -5.5395643E-04
   9.160000     -5.1665457E-04
   9.180000     -4.7829628E-04
   9.200000     -4.3963155E-04
   9.220000     -4.0064461E-04
   9.240000     -3.6094786E-04
   9.260000     -3.2051402E-04
   9.280000     -2.8010455E-04
   9.300000     -2.4095271E-04
   9.320000     -2.0391618E-04
   9.340000     -1.6884734E-04
   9.360000     -1.3480047E-04
   9.380000     -1.0096482E-04
   9.400000     -6.7523535E-05
   9.420000     -3.5650857E-05
   9.440000     -6.6128782E-06
   9.460000      1.9234491E-05
   9.480000      4.2626409E-05
   9.500000      6.4549538E-05
   9.520000      8.5120613E-05
   9.540000      1.0320625E-04
   9.560000      1.1715163E-04
   9.580000      1.2597351E-04
   9.600000      1.2993612E-04
   9.620000      1.2998724E-04
   9.640000      1.2658279E-04
   9.660000      1.1900543E-04
   9.680000      1.0583897E-04
   9.700000      8.6193657E-05
   9.720000      6.0570626E-05
   9.740000      3.0568786E-05
   9.760000     -2.3056255E-06
   9.780000     -3.7638376E-05
   9.800000     -7.5997814E-05
   9.820000     -1.1781528E-04
   9.840000     -1.6228374E-04
   9.860000     -2.0729215E-04
   9.880000     -2.5047059E-04
   9.900000     -2.9041624E-04
   9.920000     -3.2702053E-04
   9.940000     -3.6064518E-04
   9.960000     -3.9093496E-04
   9.980000     -4.1635445E-04
   10.00000     -4.3485445E-04
   10.02000     -4.4505400E-04
   10.04000     -4.4689953E-04
   10.06000     -4.4128340E-04
   10.08000     -4.2904948E-04
   10.10000     -4.1031325E-04
   10.12000     -3.8466122E-04
   10.14000     -3.5196441E-04
   10.16000     -3.1301926E-04
   10.18000     -2.6945674E-04
   10.20000     -2.2305694E-04
   10.22000     -1.7510643E-04
   10.24000     -1.2631534E-04
   10.26000     -7.7256926E-05
   10.28000     -2.8850192E-05
   10.30000      1.7551423E-05
   10.32000      6.0490234E-05
   10.34000      9.8818964E-05
   10.36000      1.3186173E-04
   10.38000      1.5926572E-04
   10.40000      1.8075325E-04
   10.42000      1.9601133E-04
   10.44000      2.0478530E-04
   10.46000      2.0706889E-04
   10.48000      2.0323718E-04
   10.50000      1.9403415E-04
   10.52000      1.8041373E-04
   10.54000      1.6330314E-04
   10.56000      1.4340857E-04
   10.58000      1.2119475E-04
   10.60000      9.7083896E-05
   10.62000      7.1745424E-05
   10.64000      4.6218032E-05
   10.66000      2.1688204E-05
   10.68000     -9.6243139E-07
   10.70000     -2.1469998E-05
   10.72000     -4.0044746E-05
   10.74000     -5.6840676E-05
   10.76000     -7.1499133E-05
   10.78000     -8.3224601E-05
   10.80000     -9.1392380E-05
   10.82000     -9.6167372E-05
   10.84000     -9.8537799E-05
   10.86000     -9.9662015E-05
   10.88000     -1.0006161E-04
   10.90000     -9.9371457E-05
   10.92000     -9.6878255E-05
   10.94000     -9.2366587E-05
   10.96000     -8.6502339E-05
   10.98000     -8.0397025E-05
   11.00000     -7.4732699E-05
   11.02000     -6.9216789E-05
   11.04000     -6.2832689E-05
   11.06000     -5.4651573E-05
   11.08000     -4.4509685E-05
   11.10000     -3.3017470E-05
   11.12000     -2.0959758E-05
   11.14000     -8.6271675E-06
   11.16000      4.3967939E-06
   11.18000      1.8894143E-05
   11.20000      3.5446661E-05
   11.22000      5.4075823E-05
   11.24000      7.4286319E-05
   11.26000      9.5395044E-05
   11.28000      1.1686612E-04
   11.30000      1.3842525E-04
   11.32000      1.5990426E-04
   11.34000      1.8094691E-04
   11.36000      2.0080428E-04
   11.38000      2.1840351E-04
   11.40000      2.3268793E-04
   11.42000      2.4299829E-04
   11.44000      2.4918330E-04
   11.46000      2.5131350E-04
   11.48000      2.4922146E-04
   11.50000      2.4229678E-04
   11.52000      2.2978458E-04
   11.54000      2.1137495E-04
   11.56000      1.8754932E-04
   11.58000      1.5931553E-04
   11.60000      1.2752655E-04
   11.62000      9.2417940E-05
   11.64000      5.3854106E-05
   11.66000      1.2118323E-05
   11.68000     -3.1483843E-05
   11.70000     -7.4838681E-05
   11.72000     -1.1596018E-04
   11.74000     -1.5385634E-04
   11.76000     -1.8854815E-04
   11.78000     -2.2021355E-04
   11.80000     -2.4823676E-04
   11.82000     -2.7104808E-04
   11.84000     -2.8692890E-04
   11.86000     -2.9507713E-04
   11.88000     -2.9599256E-04
   11.90000     -2.9085571E-04
   11.92000     -2.8046651E-04
   11.94000     -2.6467410E-04
   11.96000     -2.4275918E-04
   11.98000     -2.1438856E-04
   12.00000     -1.8029688E-04
   12.02000     -1.4213912E-04
   12.04000     -1.0168915E-04
   12.06000     -6.0076312E-05
   12.08000     -1.7649363E-05
   12.10000      2.5515392E-05
   12.12000      6.8964415E-05
   12.14000      1.1163600E-04
   12.16000      1.5221267E-04
   12.18000      1.8973454E-04
   12.20000      2.2396189E-04
   12.22000      2.5520290E-04
   12.24000      2.8376267E-04
   12.26000      3.0947285E-04
   12.28000      3.3169030E-04
   12.30000      3.4976256E-04
   12.32000      3.6355562E-04
   12.34000      3.7356705E-04
   12.36000      3.8049475E-04
   12.38000      3.8462566E-04
   12.40000      3.8560992E-04
   12.42000      3.8286767E-04
   12.44000      3.7628159E-04
   12.46000      3.6650381E-04
   12.48000      3.5450334E-04
   12.50000      3.4068996E-04
   12.52000      3.2441859E-04
   12.54000      3.0441373E-04
   12.56000      2.7982742E-04
   12.58000      2.5100651E-04
   12.60000      2.1923722E-04
   12.62000      1.8564420E-04
   12.64000      1.5023065E-04
   12.66000      1.1197036E-04
   12.68000      6.9922891E-05
   12.70000      2.4386425E-05
   12.72000     -2.2967255E-05
   12.74000     -7.0123460E-05
   12.76000     -1.1600870E-04
   12.78000     -1.6088526E-04
   12.80000     -2.0552317E-04
   12.82000     -2.4991555E-04
   12.84000     -2.9268273E-04
   12.86000     -3.3165448E-04
   12.88000     -3.6506215E-04
   12.90000     -3.9228657E-04
   12.92000     -4.1358534E-04
   12.94000     -4.2916756E-04
   12.96000     -4.3851128E-04
   12.98000     -4.4050667E-04
   13.00000     -4.3421527E-04
   13.02000     -4.1952112E-04
   13.04000     -3.9712884E-04
   13.06000     -3.6799590E-04
   13.08000     -3.3275626E-04
   13.10000     -2.9161794E-04
   13.12000     -2.4473830E-04
   13.14000     -1.9267631E-04
   13.16000     -1.3651531E-04
   13.18000     -7.7587792E-05
   13.20000     -1.7075601E-05
   13.22000      4.4175256E-05
   13.24000      1.0550334E-04
   13.26000      1.6610972E-04
   13.28000      2.2485969E-04
   13.30000      2.8039556E-04
   13.32000      3.3150098E-04
   13.34000      3.7745494E-04
   13.36000      4.1810167E-04
   13.38000      4.5356157E-04
   13.40000      4.8378753E-04
   13.42000      5.0831685E-04
   13.44000      5.2644103E-04
   13.46000      5.3768227E-04
   13.48000      5.4218702E-04
   13.50000      5.4067833E-04
   13.52000      5.3396064E-04
   13.54000      5.2236806E-04
   13.56000      5.0562620E-04
   13.58000      4.8327065E-04
   13.60000      4.5528341E-04
   13.62000      4.2240447E-04
   13.64000      3.8583798E-04
   13.66000      3.4658663E-04
   13.68000      3.0496684E-04
   13.70000      2.6070001E-04
   13.72000      2.1348200E-04
   13.74000      1.6353728E-04
   13.76000      1.1169998E-04
   13.78000      5.8987269E-05
   13.80000      6.0600369E-06
   13.82000     -4.6960344E-05
   13.84000     -1.0017725E-04
   13.86000     -1.5339315E-04
   13.88000     -2.0582635E-04
   13.90000     -2.5630102E-04
   13.92000     -3.0373529E-04
   13.94000     -3.4751042E-04
   13.96000     -3.8742385E-04
   13.98000     -4.2329813E-04
   14.00000     -4.5461606E-04
   14.02000     -4.8052199E-04
   14.04000     -5.0019176E-04
   14.06000     -5.1322521E-04
   14.08000     -5.1967701E-04
   14.10000     -5.1966996E-04
   14.12000     -5.1294896E-04
   14.14000     -4.9884064E-04
   14.16000     -4.7674170E-04
   14.18000     -4.4674531E-04
   14.20000     -4.0981485E-04
   14.22000     -3.6726778E-04
   14.24000     -3.1997083E-04
   14.26000     -2.6797858E-04
   14.28000     -2.1101076E-04
   14.30000     -1.4939639E-04
   14.32000     -8.4618288E-05
   14.34000     -1.8875317E-05
   14.36000      4.6045418E-05
   14.38000      1.0961221E-04
   14.40000      1.7231458E-04
   14.42000      2.3449985E-04
   14.44000      2.9529660E-04
   14.46000      3.5261334E-04
   14.48000      4.0425602E-04
   14.50000      4.4919143E-04
   14.52000      4.8783672E-04
   14.54000      5.2113587E-04
   14.56000      5.4928730E-04
   14.58000      5.7129003E-04
   14.60000      5.8570009E-04
   14.62000      5.9186068E-04
   14.64000      5.9044868E-04
   14.66000      5.8284629E-04
   14.68000      5.6995591E-04
   14.70000      5.5157713E-04
   14.72000      5.2689749E-04
   14.74000      4.9557857E-04
   14.76000      4.5837462E-04
   14.78000      4.1670530E-04
   14.80000      3.7163156E-04
   14.82000      3.2325418E-04
   14.84000      2.7112462E-04
   14.86000      2.1525830E-04
   14.88000      1.5674203E-04
   14.90000      9.7310738E-05
   14.92000      3.8266917E-05
   14.94000     -2.0232977E-05
   14.96000     -7.8823825E-05
   14.98000     -1.3781032E-04
   15.00000     -1.9631654E-04
   15.02000     -2.5251479E-04
   15.04000     -3.0474883E-04
   15.06000     -3.5252963E-04
   15.08000     -3.9648087E-04
   15.10000     -4.3726549E-04
   15.12000     -4.7446479E-04
   15.14000     -5.0644326E-04
   15.16000     -5.3135282E-04
   15.18000     -5.4840086E-04
   15.20000     -5.5825571E-04
   15.22000     -5.6222780E-04
   15.24000     -5.6095317E-04
   15.26000     -5.5375154E-04
   15.28000     -5.3922762E-04
   15.30000     -5.1657151E-04
   15.32000     -4.8639279E-04
   15.34000     -4.5034187E-04
   15.36000     -4.0986857E-04
   15.38000     -3.6524644E-04
   15.40000     -3.1575467E-04
   15.42000     -2.6086046E-04
   15.44000     -2.0132501E-04
   15.46000     -1.3920441E-04
   15.48000     -7.6703327E-05
   15.50000     -1.4888203E-05
   15.52000      4.6579753E-05
   15.54000      1.0843170E-04
   15.56000      1.7040010E-04
   15.58000      2.3072082E-04
   15.60000      2.8702078E-04
   15.62000      3.3783255E-04
   15.64000      3.8338115E-04
   15.66000      4.2490615E-04
   15.68000      4.6308918E-04
   15.70000      4.9698405E-04
   15.72000      5.2443455E-04
   15.74000      5.4365152E-04
   15.76000      5.5457355E-04
   15.78000      5.5879785E-04
   15.80000      5.5812125E-04
   15.82000      5.5296579E-04
   15.84000      5.4207630E-04
   15.86000      5.2375405E-04
   15.88000      4.9752835E-04
   15.90000      4.6477988E-04
   15.92000      4.2776408E-04
   15.94000      3.8791049E-04
   15.96000      3.4490947E-04
   15.98000      2.9738669E-04
   16.00000      2.4454293E-04
   16.02000      1.8728789E-04
   16.04000      1.2787034E-04
   16.06000      6.8366746E-05
   16.08000      9.4040270E-06
   16.10000     -4.9749808E-05
   16.12000     -1.0985304E-04
   16.14000     -1.7036604E-04
   16.16000     -2.2935581E-04
   16.18000     -2.8470444E-04
   16.20000     -3.3549345E-04
   16.22000     -3.8227771E-04
   16.24000     -4.2599288E-04
   16.26000     -4.6650993E-04
   16.28000     -5.0219003E-04
   16.30000     -5.3088466E-04
   16.32000     -5.5149128E-04
   16.34000     -5.6464283E-04
   16.36000     -5.7187880E-04
   16.38000     -5.7402632E-04
   16.40000     -5.7026534E-04
   16.42000     -5.5875856E-04
   16.44000     -5.3832168E-04
   16.46000     -5.0964742E-04
   16.48000     -4.7496246E-04
   16.50000     -4.3637739E-04
   16.52000     -3.9436639E-04
   16.54000     -3.4772494E-04
   16.56000     -2.9506488E-04
   16.58000     -2.3654784E-04
   16.60000     -1.7433279E-04
   16.62000     -1.1132514E-04
   16.64000     -4.9296621E-05
   16.66000      1.2002945E-05
   16.68000      7.3980489E-05
   16.70000      1.3733961E-04
   16.72000      2.0084321E-04
   16.74000      2.6177178E-04
   16.76000      3.1768152E-04
   16.78000      3.6794911E-04
   16.80000      4.1378377E-04
   16.82000      4.5671570E-04
   16.84000      4.9687841E-04
   16.86000      5.3256546E-04
   16.88000      5.6143064E-04
   16.90000      5.8227842E-04
   16.92000      5.9589162E-04