  -2.400000      0.0000000E+00
  -2.380000      0.0000000E+00
  -2.360000      0.0000000E+00
  -2.340000      0.0000000E+00
  -2.320000      0.0000000E+00
  -2.300000      0.0000000E+00
  -2.280000      0.0000000E+00
  -2.260000      0.0000000E+00
  -2.240000      0.0000000E+00
  -2.220000      0.0000000E+00
  -2.200000      0.0000000E+00
  -2.180000      0.0000000E+00
  -2.160000      0.0000000E+00
  -2.140000      0.0000000E+00
  -2.120000      0.0000000E+00
  -2.100000      0.0000000E+00
  -2.080000      0.0000000E+00
  -2.060000      0.0000000E+00
  -2.040000      0.0000000E+00
  -2.020000      0.0000000E+00
  -2.000000      0.0000000E+00
  -1.980000      0.0000000E+00
  -1.960000      0.0000000E+00
  -1.940000      0.0000000E+00
  -1.920000      0.0000000E+00
  -1.900000      0.0000000E+00
  -1.880000      0.0000000E+00
  -1.860000      0.0000000E+00
  -1.840000      0.0000000E+00
  -1.820000      0.0000000E+00
  -1.800000      0.0000000E+00
  -1.780000      0.0000000E+00
  -1.760000      0.0000000E+00
  -1.740000      0.0000000E+00
  -1.720000      0.0000000E+00
  -1.700000      0.0000000E+00
  -1.680000      0.0000000E+00
  -1.660000      0.0000000E+00
  -1.640000      0.0000000E+00
  -1.620000      0.0000000E+00
  -1.600000      0.0000000E+00
  -1.580000      0.0000000E+00
  -1.560000      0.0000000E+00
  -1.540000      0.0000000E+00
  -1.520000      0.0000000E+00
  -1.500000      0.0000000E+00
  -1.480000      0.0000000E+00
  -1.460000      0.0000000E+00
  -1.440000      0.0000000E+00
  -1.420000      0.0000000E+00
  -1.400000      0.0000000E+00
  -1.380000      0.0000000E+00
  -1.360000      0.0000000E+00
  -1.340000      0.0000000E+00
  -1.320000      0.0000000E+00
  -1.300000      0.0000000E+00
  -1.280000      0.0000000E+00
  -1.260000      0.0000000E+00
  -1.240000      0.0000000E+00
  -1.220000      0.0000000E+00
  -1.200000      0.0000000E+00
  -1.180000      0.0000000E+00
  -1.160000      0.0000000E+00
  -1.140000      0.0000000E+00
  -1.120000      0.0000000E+00
  -1.100000      0.0000000E+00
  -1.080000      0.0000000E+00
  -1.060000      0.0000000E+00
  -1.040000      0.0000000E+00
  -1.020000      0.0000000E+00
  -1.000000      0.0000000E+00
 -0.9800000      0.0000000E+00
 -0.9600000      0.0000000E+00
 -0.9400000      0.0000000E+00
 -0.9200000      0.0000000E+00
 -0.9000000      0.0000000E+00
 -0.8800000      0.0000000E+00
 -0.8600000      0.0000000E+00
 -0.8400000      0.0000000E+00
 -0.8200000      0.0000000E+00
 -0.8000000      0.0000000E+00
 -0.7800000      0.0000000E+00
 -0.7600000      0.0000000E+00
 -0.7400000      0.0000000E+00
 -0.7200000      0.0000000E+00
 -0.7000000      0.0000000E+00
 -0.6800000      0.0000000E+00
 -0.6600000      0.0000000E+00
 -0.6400000      0.0000000E+00
 -0.6200000      0.0000000E+00
 -0.6000000      0.0000000E+00
 -0.5800000      0.0000000E+00
 -0.5600000      0.0000000E+00
 -0.5400000      0.0000000E+00
 -0.5200000      0.0000000E+00
 -0.5000000      0.0000000E+00
 -0.4800000      0.0000000E+00
 -0.4600000      0.0000000E+00
 -0.4400000      0.0000000E+00
 -0.4200000      0.0000000E+00
 -0.4000000      0.0000000E+00
 -0.3800000      0.0000000E+00
 -0.3600000      0.0000000E+00
 -0.3400000      0.0000000E+00
 -0.3200000      0.0000000E+00
 -0.3000000      0.0000000E+00
 -0.2800000      0.0000000E+00
 -0.2600000      0.0000000E+00
 -0.2400000      0.0000000E+00
 -0.2200000      0.0000000E+00
 -0.2000000      0.0000000E+00
 -0.1800000      0.0000000E+00
 -0.1600000      0.0000000E+00
 -0.1400000      0.0000000E+00
 -0.1200000      0.0000000E+00
 -0.1000000      0.0000000E+00
 -7.9999998E-02  0.0000000E+00
 -5.9999999E-02  0.0000000E+00
 -3.9999999E-02  0.0000000E+00
 -2.0000000E-02  0.0000000E+00
  0.0000000E+00  0.0000000E+00
  2.0000000E-02  0.0000000E+00
  3.9999999E-02  0.0000000E+00
  5.9999999E-02  0.0000000E+00
  7.9999998E-02  0.0000000E+00
  0.1000000      0.0000000E+00
  0.1200000      0.0000000E+00
  0.1400000      0.0000000E+00
  0.1600000      0.0000000E+00
  0.1800000      0.0000000E+00
  0.2000000      0.0000000E+00
  0.2200000      0.0000000E+00
  0.2400000      0.0000000E+00
  0.2600000      0.0000000E+00
  0.2800000      0.0000000E+00
  0.3000000      0.0000000E+00
  0.3200000      0.0000000E+00
  0.3400000      0.0000000E+00
  0.3600000      0.0000000E+00
  0.3800000      0.0000000E+00
  0.4000000      0.0000000E+00
  0.4200000      0.0000000E+00
  0.4400000      0.0000000E+00
  0.4600000      0.0000000E+00
  0.4800000      0.0000000E+00
  0.5000000      0.0000000E+00
  0.5200000      0.0000000E+00
  0.5400000      0.0000000E+00
  0.5600000      0.0000000E+00
  0.5800000      0.0000000E+00
  0.6000000      0.0000000E+00
  0.6200000      0.0000000E+00
  0.6400000      0.0000000E+00
  0.6600000      0.0000000E+00
  0.6800000      0.0000000E+00
  0.7000000      0.0000000E+00
  0.7200000      0.0000000E+00
  0.7400000      0.0000000E+00
  0.7600000      0.0000000E+00
  0.7800000      0.0000000E+00
  0.8000000      0.0000000E+00
  0.8200000      0.0000000E+00
  0.8400000      0.0000000E+00
  0.8600000      0.0000000E+00
  0.8800000      0.0000000E+00
  0.9000000      0.0000000E+00
  0.9200000      0.0000000E+00
  0.9400000      0.0000000E+00
  0.9600000      0.0000000E+00
  0.9800000      0.0000000E+00
   1.000000      0.0000000E+00
   1.020000      0.0000000E+00
   1.040000      0.0000000E+00
   1.060000      0.0000000E+00
   1.080000      0.0000000E+00
   1.100000      0.0000000E+00
   1.120000      0.0000000E+00
   1.140000      0.0000000E+00
   1.160000      0.0000000E+00
   1.180000      0.0000000E+00
   1.200000      0.0000000E+00
   1.220000      0.0000000E+00
   1.240000      0.0000000E+00
   1.260000      0.0000000E+00
   1.280000      0.0000000E+00
   1.300000      0.0000000E+00
   1.320000      0.0000000E+00
   1.340000      0.0000000E+00
   1.360000      0.0000000E+00
   1.380000      0.0000000E+00
   1.400000      0.0000000E+00
   1.420000      0.0000000E+00
   1.440000      0.0000000E+00
   1.460000      0.0000000E+00
   1.480000      0.0000000E+00
   1.500000      0.0000000E+00
   1.520000      0.0000000E+00
   1.540000      0.0000000E+00
   1.560000      0.0000000E+00
   1.580000      0.0000000E+00
   1.600000      0.0000000E+00
   1.620000      0.0000000E+00
   1.640000      0.0000000E+00
   1.660000      0.0000000E+00
   1.680000      0.0000000E+00
   1.700000      0.0000000E+00
   1.720000      0.0000000E+00
   1.740000      0.0000000E+00
   1.760000      0.0000000E+00
   1.780000      0.0000000E+00
   1.800000      0.0000000E+00
   1.820000      0.0000000E+00
   1.840000      0.0000000E+00
   1.860000      0.0000000E+00
   1.880000      0.0000000E+00
   1.900000      0.0000000E+00
   1.920000      0.0000000E+00
   1.940000      0.0000000E+00
   1.960000      0.0000000E+00
   1.980000      0.0000000E+00
   2.000000      0.0000000E+00
   2.020000      0.0000000E+00
   2.040000      0.0000000E+00
   2.060000      0.0000000E+00
   2.080000      0.0000000E+00
   2.100000      0.0000000E+00
   2.120000      0.0000000E+00
   2.140000      0.0000000E+00
   2.160000      0.0000000E+00
   2.180000      0.0000000E+00
   2.200000      0.0000000E+00
   2.220000      0.0000000E+00
   2.240000      0.0000000E+00
   2.260000      0.0000000E+00
   2.280000      0.0000000E+00
   2.300000      0.0000000E+00
   2.320000      0.0000000E+00
   2.340000      0.0000000E+00
   2.360000      0.0000000E+00
   2.380000      0.0000000E+00
   2.400000      0.0000000E+00
   2.420000      0.0000000E+00
   2.440000      0.0000000E+00
   2.460000      0.0000000E+00
   2.480000      0.0000000E+00
   2.500000     -2.1254092E-38
   2.520000     -3.6899241E-38
   2.540000     -2.4506140E-38
   2.560000      1.6943107E-38
   2.580000      6.6365893E-38
   2.600000      1.1596667E-37
   2.620000      1.3032849E-37
   2.640000      8.8425661E-38
   2.660000      2.6750810E-38
   2.680000      1.4025094E-37
   2.700000      4.2176402E-37
   2.720000      7.5110642E-37
   2.740000      4.6313654E-37
   2.760000     -6.4990712E-37
   2.780000     -1.6460499E-36
   2.800000     -6.3075063E-37
   2.820000      2.2494454E-36
   2.840000      3.4813714E-36
   2.860000     -1.1976873E-36
   2.880000     -9.3060539E-36
   2.900000     -1.2737032E-35
   2.920000     -1.8728319E-36
   2.940000      1.9552002E-35
   2.960000      3.4496813E-35
   2.980000      2.1670000E-35
   3.000000     -2.1606783E-35
   3.020000     -6.8879733E-35
   3.040000     -7.2865061E-35
   3.060000     -3.3058558E-36
   3.080000      1.1130757E-34
   3.100000      1.7970593E-34
   3.120000      1.0284901E-34
   3.140000     -1.2867457E-34
   3.160000     -3.6895147E-34
   3.180000     -3.7367503E-34
   3.200000      7.3004405E-36
   3.220000      6.1327216E-34
   3.240000      9.4637039E-34
   3.260000      4.8824038E-34
   3.280000     -7.6206532E-34
   3.300000     -1.9677246E-33
   3.320000     -1.8294264E-33
   3.340000      3.1515706E-34
   3.360000      3.4033059E-33
   3.380000      4.7411111E-33
   3.400000      1.8878099E-33
   3.420000     -4.6126516E-33
   3.440000     -1.0058102E-32
   3.460000     -8.1288983E-33
   3.480000      3.3929774E-33
   3.500000      1.7941354E-32
   3.520000      2.2052048E-32
   3.540000      5.5610694E-33
   3.560000     -2.5915898E-32
   3.580000     -4.8035001E-32
   3.600000     -3.2696105E-32
   3.620000      2.4806792E-32
   3.640000      8.8091835E-32
   3.660000      9.5036491E-32
   3.680000      8.1242852E-33
   3.700000     -1.3359891E-31
   3.720000     -2.1391460E-31
   3.740000     -1.1810338E-31
   3.760000      1.4841763E-31
   3.780000      4.0275751E-31
   3.800000      3.7947346E-31
   3.820000     -4.0805970E-32
   3.840000     -6.3457647E-31
   3.860000     -8.8817363E-31
   3.880000     -3.7302451E-31
   3.900000      7.7636648E-31
   3.920000      1.7168860E-30
   3.940000      1.3975756E-30
   3.960000     -4.8115452E-31
   3.980000     -2.7960751E-30
   4.000000     -3.4378466E-30
   4.020000     -9.5417942E-31
   4.040000      3.6742812E-30
   4.060000      6.8502906E-30
   4.080000      4.7148890E-30
   4.100000     -3.1167981E-30
   4.120000     -1.1532144E-29
   4.140000     -1.2441507E-29
   4.160000     -1.4476729E-30
   4.180000      1.6065200E-29
   4.200000      2.5763063E-29
   4.220000      1.4471842E-29
   4.240000     -1.6237532E-29
   4.260000     -4.4894853E-29
   4.280000     -4.2340541E-29
   4.300000      2.9570326E-30
   4.320000      6.5627995E-29
   4.340000      9.1906328E-29
   4.360000      3.9879897E-29
   4.380000     -7.4106817E-29
   4.400000     -1.6583214E-28
   4.420000     -1.3594697E-28
   4.440000      3.9420196E-29
   4.460000      2.5252849E-28
   4.480000      3.1222909E-28
   4.500000      9.4382472E-29
   4.520000     -3.0847314E-28
   4.540000     -5.8447746E-28
   4.560000     -4.1204650E-28
   4.580000      2.3212449E-28
   4.600000      9.2434844E-28
   4.620000      1.0159560E-27
   4.640000      1.6634718E-28
   4.660000     -1.1990705E-27
   4.680000     -1.9802764E-27
   4.700000     -1.1830177E-27
   4.720000      1.0800397E-27
   4.740000      3.2414479E-27
   4.760000      3.1874245E-27
   4.780000      6.2683717E-29
   4.800000     -4.3968126E-27
   4.820000     -6.4735420E-27
   4.840000     -3.2216954E-27
   4.860000      4.4080168E-27
   4.880000      1.0910850E-26
   4.900000      9.6525036E-27
   4.920000     -1.2652851E-27
   4.940000     -1.5319062E-26
   4.960000     -2.0428625E-26
   4.980000     -8.2293816E-27
   5.000000      1.6539829E-26
   5.020000      3.5395468E-26
   5.040000      2.8230820E-26
   5.060000     -8.3189928E-27
   5.080000     -5.1218831E-26
   5.100000     -6.2559597E-26
   5.120000     -1.9529914E-26
   5.140000      5.8349638E-26
   5.160000      1.1140153E-25
   5.180000      8.0495909E-26
   5.200000     -3.7352287E-26
   5.220000     -1.6500221E-25
   5.240000     -1.8713411E-25
   5.260000     -4.3541304E-26
   5.280000      1.9422714E-25
   5.300000      3.4050109E-25
   5.320000      2.2577443E-25
   5.340000     -1.4009158E-25
   5.360000     -5.1122200E-25
   5.380000     -5.4698299E-25
   5.400000     -9.2176480E-26
   5.420000      6.1264269E-25
   5.440000      1.0100094E-24
   5.460000      6.2446727E-25
   5.480000     -4.7140858E-25
   5.500000     -1.5283331E-24
   5.520000     -1.5663841E-24
   5.540000     -1.8955705E-25
   5.560000      1.8471618E-24
   5.580000      2.9226539E-24
   5.600000      1.7229470E-24
   5.620000     -1.4578670E-24
   5.640000     -4.4278703E-24
   5.660000     -4.4289444E-24
   5.680000     -4.3712198E-25
   5.700000      5.3202854E-24
   5.720000      8.2669215E-24
   5.740000      4.8013514E-24
   5.760000     -4.1376938E-24
   5.780000     -1.2390337E-23
   5.800000     -1.2350586E-23
   5.820000     -1.2897232E-24
   5.840000      1.4592026E-23
   5.860000      2.2754024E-23
   5.880000      1.3405505E-23
   5.900000     -1.0887696E-23
   5.920000     -3.3464196E-23
   5.940000     -3.3783022E-23
   5.960000     -4.3700366E-24
   5.980000      3.8373703E-23
   6.000000      6.1029448E-23
   6.020000      3.7231972E-23
   6.040000     -2.6858136E-23
   6.060000     -8.7705221E-23
   6.080000     -9.0913335E-23
   6.100000     -1.5576638E-23
   6.120000      9.6952621E-23
   6.140000      1.5994753E-22
   6.160000      1.0312091E-22
   6.180000     -6.0942156E-23
   6.200000     -2.2239721E-22
   6.220000     -2.4019161E-22
   6.240000     -5.5307057E-23
   6.260000      2.3322172E-22
   6.280000      4.0681446E-22
   6.300000      2.8110393E-22
   6.320000     -1.2427851E-22
   6.340000     -5.4236118E-22
   6.360000     -6.1668117E-22
   6.380000     -1.8268123E-22
   6.400000      5.3452079E-22
   6.420000      1.0009775E-21
   6.440000      7.4407819E-22
   6.460000     -2.2372653E-22
   6.480000     -1.2769483E-21
   6.500000     -1.5389726E-21
   6.520000     -5.6177504E-22
   6.540000      1.1700365E-21
   6.560000      2.3919222E-21
   6.580000      1.9212720E-21
   6.600000     -3.1163159E-22
   6.620000     -2.8971801E-21
   6.640000     -3.7393956E-21
   6.660000     -1.6491495E-21
   6.680000      2.4008667E-21
   6.700000      5.5173488E-21
   6.720000      4.8204544E-21
   6.740000     -1.1773305E-22
   6.760000     -6.2620767E-21
   6.780000     -8.7625795E-21
   6.800000     -4.5661723E-21
   6.820000      4.5453655E-21
   6.840000      1.2202233E-20
   6.860000      1.1616759E-20
   6.880000      1.1727246E-21
   6.900000     -1.2903476E-20
   6.920000     -1.9772355E-20
   6.940000     -1.1888696E-20
   6.960000      7.8680628E-21
   6.980000      2.6002552E-20
   7.000000      2.7029337E-20
   7.020000      5.8815587E-21
   7.040000     -2.5324378E-20
   7.060000     -4.3177949E-20
   7.080000     -2.9674297E-20
   7.100000      1.1562410E-20
   7.120000      5.3117965E-20
   7.140000      6.0817246E-20
   7.160000      2.0357049E-20
   7.180000     -4.6248440E-20
   7.200000     -9.0371627E-20
   7.220000     -7.0653315E-20
   7.240000      1.1333433E-20
   7.260000      1.0261123E-19
   7.280000      1.3064527E-19
   7.300000      5.8395378E-20
   7.320000     -7.7451842E-20
   7.340000     -1.8016579E-19
   7.360000     -1.5879933E-19
   7.380000     -3.6883083E-21
   7.400000      1.8801844E-19
   7.420000      2.6845516E-19
   7.440000      1.4850203E-19
   7.460000     -1.1725160E-19
   7.480000     -3.4443348E-19
   7.500000     -3.4118034E-19
   7.520000     -6.2042566E-20
   7.540000      3.2489638E-19
   7.560000      5.3000367E-19
   7.580000      3.5119336E-19
   7.600000     -1.4533684E-19
   7.620000     -6.2458516E-19
   7.640000     -6.9889296E-19
   7.660000     -2.2929054E-19
   7.680000      5.1418374E-19
   7.700000      9.8989386E-19
   7.720000      7.6680475E-19
   7.740000     -1.0894506E-19
   7.760000     -1.0607646E-18
   7.780000     -1.3437037E-18
   7.800000     -6.0916036E-19
   7.820000      7.4322245E-19
   7.840000      1.7480419E-18
   7.860000      1.5427049E-18
   7.880000      7.4798434E-20
   7.900000     -1.7113069E-18
   7.920000     -2.4512697E-18
   7.940000     -1.3749751E-18
   7.960000      9.7617280E-19
   7.980000      2.9542933E-18
   8.000000      2.9280808E-18
   8.020000      5.8380102E-19
   8.040000     -2.6048741E-18
   8.060000     -4.2531195E-18
   8.080000     -2.8115414E-18
   8.100000      1.0680790E-18
   8.120000      4.7001643E-18
   8.140000      5.1790535E-18
   8.160000      1.6530805E-18
   8.180000     -3.6844928E-18
   8.200000     -6.8789750E-18
   8.220000     -5.0965654E-18
   8.240000      9.5560940E-19
   8.260000      7.0774036E-18
   8.280000      8.4208897E-18
   8.300000      3.2659460E-18
   8.320000     -5.1654567E-18
   8.340000     -1.0596045E-17
   8.360000     -8.2956173E-18
   8.380000      9.1674628E-19
   8.400000      1.0577394E-17
   8.420000      1.3011885E-17
   8.440000      5.3466477E-18
   8.460000     -7.5429715E-18
   8.480000     -1.5952171E-17
   8.500000     -1.2562665E-17
   8.520000      1.3247860E-18
   8.540000      1.5743300E-17
   8.560000      1.9064200E-17
   8.580000      7.2724512E-18
   8.600000     -1.1779267E-17
   8.620000     -2.3303814E-17
   8.640000     -1.6876677E-17
   8.660000      4.3666451E-18
   8.680000      2.4537974E-17
   8.700000      2.6530205E-17
   8.720000      6.1855962E-18
   8.740000     -2.2358621E-17
   8.760000     -3.5920381E-17
   8.780000     -2.0539818E-17
   8.800000      1.5226008E-17
   8.820000      4.3966559E-17
   8.840000      3.9662364E-17
   8.860000      1.1627540E-19
   8.880000     -4.7030714E-17
   8.900000     -6.2582778E-17
   8.920000     -2.7123327E-17
   8.940000      3.8788352E-17
   8.960000      8.4619075E-17
   8.980000      6.7115516E-17
   9.000000     -1.1572862E-17
   9.020000     -9.6839689E-17
   9.040000     -1.1744089E-16
   9.060000     -4.2316922E-17
   9.080000      8.5131311E-17
   9.100000      1.6835766E-16
   9.120000      1.2770005E-16
   9.140000     -2.9542507E-17
   9.160000     -1.9716173E-16
   9.180000     -2.3771270E-16
   9.200000     -8.9844659E-17
   9.220000      1.6518270E-16
   9.240000      3.4065383E-16
   9.260000      2.7561020E-16
   9.280000     -2.8234278E-17
   9.300000     -3.7434751E-16
   9.320000     -4.9110070E-16
   9.340000     -2.3652109E-16
   9.360000      2.6074226E-16
   9.380000      6.5069309E-16
   9.400000      5.9924579E-16
   9.420000      5.9457405E-17
   9.440000     -6.3440322E-16
   9.460000     -9.5966281E-16
   9.480000     -5.8589195E-16
   9.500000      3.2477438E-16
   9.520000      1.1525287E-15
   9.540000      1.2255568E-15
   9.560000      3.4334107E-16
   9.580000     -9.7625629E-16
   9.600000     -1.7733265E-15
   9.620000     -1.3228603E-15
   9.640000      2.5035904E-16
   9.660000      1.9160205E-15
   9.680000      2.3857937E-15
   9.700000      1.0786242E-15
   9.720000     -1.2997878E-15
   9.740000     -3.0854132E-15
   9.760000     -2.7903688E-15
   9.780000     -2.9174676E-16
   9.800000      2.8454128E-15
   9.820000      4.3058441E-15
   9.840000      2.6967867E-15
   9.860000     -1.2278865E-15
   9.880000     -4.8138958E-15
   9.900000     -5.2608640E-15
   9.920000     -1.7570354E-15
   9.940000      3.5991213E-15
   9.960000      6.9823509E-15
   9.980000      5.5245975E-15
   10.00000     -3.5065766E-16
   10.02000     -6.7876536E-15
   10.04000     -8.9655430E-15
   10.06000     -4.6417871E-15
   10.08000      3.7924647E-15
   10.10000      1.0511598E-14
   10.12000      1.0220914E-14
   10.14000      2.2283273E-15
   10.16000     -8.4531830E-15
   10.18000     -1.4173470E-14
   10.20000     -1.0070212E-14
   10.22000      1.9594117E-15
   10.24000      1.3896868E-14
   10.26000      1.6894658E-14
   10.28000      7.7744648E-15
   10.30000     -7.9983094E-15
   10.32000     -1.9460885E-14
   10.34000     -1.7715537E-14
   10.36000     -2.7331716E-15
   10.38000      1.5734855E-14
   10.40000      2.4398708E-14
   10.42000      1.5900414E-14
   10.44000     -5.1833313E-15
   10.46000     -2.4570415E-14
   10.48000     -2.7861402E-14
   10.50000     -1.1103126E-14
   10.52000      1.5354802E-14
   10.54000      3.3146703E-14
   10.56000      2.8604960E-14
   10.58000      3.1394867E-15
   10.60000     -2.6525211E-14
   10.62000     -3.9290924E-14
   10.64000     -2.4726005E-14
   10.66000      8.4821100E-15
   10.68000      3.7411639E-14
   10.70000      4.0637612E-14
   10.72000      1.4118144E-14
   10.74000     -2.4479864E-14
   10.76000     -4.7186227E-14
   10.78000     -3.5733518E-14
   10.80000      3.9876778E-15
   10.82000      4.4301463E-14
   10.84000      5.4667340E-14
   10.86000      2.4437097E-14
   10.88000     -2.7334792E-14
   10.90000     -6.3631609E-14
   10.92000     -5.5884652E-14
   10.94000     -6.3654030E-15
   10.96000      5.0895835E-14
   10.98000      7.3412528E-14
   11.00000      4.2162698E-14
   11.02000     -2.1733514E-14
   11.04000     -7.0091150E-14
   11.06000     -6.3309289E-14
   11.08000     -2.8704778E-15
   11.10000      6.5495616E-14
   11.12000      8.3987328E-14
   11.14000      2.8784426E-14
   11.16000     -6.5376497E-14
   11.18000     -1.2495113E-13
   11.20000     -9.2012552E-14
   11.22000      2.5581003E-14
   11.24000      1.4944278E-13
   11.26000      1.8208692E-13
   11.28000      8.1848570E-14
   11.30000     -9.5041271E-14
   11.32000     -2.2374488E-13
   11.34000     -1.9891318E-13
   11.36000     -2.0490266E-14
   11.38000      1.9102236E-13
   11.40000      2.7229231E-13
   11.42000      1.4020615E-13
   11.44000     -1.3007126E-13
   11.46000     -3.4016288E-13
   11.48000     -3.0611155E-13
   11.50000     -6.3794185E-15
   11.52000      3.7350922E-13
   11.54000      5.4998378E-13
   11.56000      3.4346161E-13
   11.58000     -1.6698727E-13
   11.60000     -6.6048745E-13
   11.62000     -7.7470663E-13
   11.64000     -3.6609116E-13
   11.66000      3.5415220E-13
   11.68000      9.2415583E-13
   11.70000      9.2991402E-13
   11.72000      3.0589124E-13
   11.74000     -5.7816772E-13
   11.76000     -1.1306468E-12
   11.78000     -9.3303457E-13
   11.80000     -5.5922257E-14
   11.82000      9.3648873E-13
   11.84000      1.3312390E-12
   11.86000      7.5760860E-13
   11.88000     -5.0339366E-13
   11.90000     -1.6292453E-12
   11.92000     -1.7609589E-12
   11.94000     -6.0326473E-13
   11.96000      1.2813278E-12
   11.98000      2.7271215E-12
   12.00000      2.6694946E-12
   12.02000      8.8266623E-13
   12.04000     -1.7436574E-12
   12.06000     -3.6404577E-12
   12.08000     -3.5149813E-12
   12.10000     -1.2539543E-12
   12.12000      1.8457328E-12
   12.14000      3.7749907E-12
   12.16000      3.1001777E-12
   12.18000      4.2928287E-14
   12.20000     -3.4302014E-12
   12.22000     -4.7309886E-12
   12.24000     -2.3977363E-12
   12.26000      2.6590980E-12
   12.28000      7.3815884E-12
   12.30000      8.3543996E-12
   12.32000      4.1600464E-12
   12.34000     -3.2780426E-12
   12.36000     -9.4949552E-12
   12.38000     -1.0221933E-11
   12.40000     -4.4371867E-12
   12.42000      4.3950928E-12
   12.44000      1.0082849E-11
   12.46000      7.6992865E-12
   12.48000     -2.6718035E-12
   12.50000     -1.5140070E-11
   12.52000     -2.1182840E-11
   12.54000     -1.5141872E-11
   12.56000      1.4957476E-12
   12.58000      2.0210816E-11
   12.60000      3.0457088E-11
   12.62000      2.6645767E-11
   12.64000      1.2399244E-11
   12.66000     -1.3092072E-12
   12.68000     -3.5834564E-12
   12.70000      8.0195633E-12
   12.72000      2.4110030E-11
   12.74000      2.8283985E-11
   12.76000      7.9431409E-12
   12.78000     -3.5660103E-11
   12.80000     -8.5336474E-11
   12.82000     -1.1642376E-10
   12.84000     -1.1138609E-10
   12.86000     -7.1320359E-11
   12.88000     -1.6160498E-11
   12.90000      2.7770432E-11
   12.92000      4.5578555E-11
   12.94000      4.5098005E-11
   12.96000      5.2896586E-11
   12.98000      9.5833855E-11
   13.00000      1.7925024E-10
   13.02000      2.7667604E-10
   13.04000      3.3988984E-10
   13.06000      3.2520478E-10
   13.08000      2.2015353E-10
   13.10000      5.2572491E-11
   13.12000     -1.2582951E-10
   13.14000     -2.7247199E-10
   13.16000     -3.8180206E-10
   13.18000     -4.8730053E-10
   13.20000     -6.3248906E-10
   13.22000     -8.2731066E-10
   13.24000     -1.0192140E-09
   13.26000     -1.1024148E-09
   13.28000     -9.6564035E-10
   13.30000     -5.5207688E-10
   13.32000      1.0659261E-10
   13.34000      9.0695262E-10
   13.36000      1.7340550E-09
   13.38000      2.5265798E-09
   13.40000      3.3006042E-09
   13.42000      4.1095136E-09
   13.44000      4.9603917E-09
   13.46000      5.7409948E-09
   13.48000      6.2110463E-09
   13.50000      6.0729870E-09
   13.52000      5.0830393E-09
   13.54000      3.1300331E-09
   13.56000      2.2312230E-10
   13.58000     -3.6138155E-09
   13.60000     -8.4786160E-09
   13.62000     -1.4667962E-08
   13.64000     -2.2638226E-08
   13.66000     -3.2870517E-08
   13.68000     -4.5732452E-08
   13.70000     -6.1443998E-08
   13.72000     -8.0195782E-08
   13.74000     -1.0236869E-07
   13.76000     -1.2872965E-07
   13.78000     -1.6048440E-07
   13.80000     -1.9915767E-07
   13.82000     -2.4639107E-07
   13.84000     -3.0381696E-07
   13.86000     -3.7313097E-07
   13.88000     -4.5636267E-07
   13.90000     -5.5620825E-07
   13.92000     -6.7623841E-07
   13.94000     -8.2086649E-07
   13.96000     -9.9512386E-07
   13.98000     -1.2044321E-06
   14.00000     -1.4545868E-06
   14.02000     -1.7520490E-06
   14.04000     -2.1044477E-06
   14.06000     -2.5210502E-06
   14.08000     -3.0129652E-06
   14.10000     -3.5930186E-06
   14.12000     -4.2754618E-06
   14.14000     -5.0758140E-06
   14.16000     -6.0110738E-06
   14.18000     -7.1003146E-06
   14.20000     -8.3654231E-06
   14.22000     -9.8316295E-06
   14.24000     -1.1527591E-05
   14.26000     -1.3485062E-05
   14.28000     -1.5738486E-05
   14.30000     -1.8324907E-05
   14.32000     -2.1284410E-05
   14.34000     -2.4660940E-05
   14.36000     -2.8503089E-05
   14.38000     -3.2864362E-05
   14.40000     -3.7802776E-05
   14.42000     -4.3379994E-05
   14.44000     -4.9660535E-05
   14.46000     -5.6711528E-05
   14.48000     -6.4603126E-05
   14.50000     -7.3409217E-05
   14.52000     -8.3207735E-05
   14.54000     -9.4080111E-05
   14.56000     -1.0610971E-04
   14.58000     -1.1937990E-04
   14.60000     -1.3397250E-04
   14.62000     -1.4996683E-04
   14.64000     -1.6743985E-04
   14.66000     -1.8646593E-04
   14.68000     -2.0711609E-04
   14.70000     -2.2945568E-04
   14.72000     -2.5354122E-04
   14.74000     -2.7941726E-04
   14.76000     -3.0711372E-04
   14.78000     -3.3664482E-04
   14.80000     -3.6800862E-04
   14.82000     -4.0118638E-04
   14.84000     -4.3614046E-04
   14.86000     -4.7281070E-04
   14.88000     -5.1111041E-04
   14.90000     -5.5092282E-04
   14.92000     -5.9209921E-04
   14.94000     -6.3445891E-04
   14.96000     -6.7779043E-04
   14.98000     -7.2185195E-04
   15.00000     -7.6636969E-04
   15.02000     -8.1103545E-04
   15.04000     -8.5550430E-04
   15.06000     -8.9939340E-04
   15.08000     -9.4228500E-04
   15.10000     -9.8373054E-04
   15.12000     -1.0232558E-03
   15.14000     -1.0603645E-03
   15.16000     -1.0945406E-03
   15.18000     -1.1252487E-03
   15.20000     -1.1519374E-03
   15.22000     -1.1740435E-03
   15.24000     -1.1910012E-03
   15.26000     -1.2022518E-03
   15.28000     -1.2072530E-03
   15.30000     -1.2054873E-03
   15.32000     -1.1964658E-03
   15.34000     -1.1797325E-03
   15.36000     -1.1548703E-03
   15.38000     -1.1215092E-03
   15.40000     -1.0793379E-03
   15.42000     -1.0281149E-03
   15.44000     -9.6767792E-04
   15.46000     -8.9794921E-04
   15.48000     -8.1893685E-04
   15.50000     -7.3073502E-04
   15.52000     -6.3352595E-04
   15.54000     -5.2758516E-04
   15.56000     -4.1328743E-04
   15.58000     -2.9111159E-04
   15.60000     -1.6164075E-04
   15.62000     -2.5557261E-05
   15.64000      1.1636689E-04
   15.66000      2.6327957E-04
   15.68000      4.1425624E-04
   15.70000      5.6830444E-04
   15.72000      7.2436751E-04
   15.74000      8.8132982E-04
   15.76000      1.0380280E-03
   15.78000      1.1932673E-03
   15.80000      1.3458405E-03
   15.82000      1.4945465E-03
   15.84000      1.6382035E-03
   15.86000      1.7756581E-03
   15.88000      1.9057911E-03
   15.90000      2.0275263E-03
   15.92000      2.1398452E-03
   15.94000      2.2418059E-03
   15.96000      2.3325623E-03
   15.98000      2.4113776E-03
   16.00000      2.4776310E-03
   16.02000      2.5308153E-03
   16.04000      2.5705367E-03
   16.06000      2.5965159E-03
   16.08000      2.6085945E-03
   16.10000      2.6067451E-03
   16.12000      2.5910775E-03
   16.14000      2.5618391E-03
   16.16000      2.5194050E-03
   16.18000      2.4642639E-03
   16.20000      2.3970029E-03
   16.22000      2.3182994E-03
   16.24000      2.2289166E-03
   16.26000      2.1297028E-03
   16.28000      2.0215861E-03
   16.30000      1.9055640E-03
   16.32000      1.7826838E-03
   16.34000      1.6540193E-03
   16.36000      1.5206522E-03
   16.38000      1.3836606E-03
   16.40000      1.2441151E-03
   16.42000      1.1030785E-03
   16.44000      9.6159900E-04
   16.46000      8.2069670E-04
   16.48000      6.8134518E-04
   16.50000      5.4445310E-04
   16.52000      4.1085397E-04
   16.54000      2.8130479E-04
   16.56000      1.5649034E-04
   16.58000      3.7027290E-05
   16.60000     -7.6536315E-05
   16.62000     -1.8372685E-04
   16.64000     -2.8415342E-04
   16.66000     -3.7751443E-04
   16.68000     -4.6359858E-04
   16.70000     -5.4227922E-04
   16.72000     -6.1350327E-04
   16.74000     -6.7727891E-04
   16.76000     -7.3366665E-04
   16.78000     -7.8277756E-04
   16.80000     -8.2477654E-04
   16.82000     -8.5988658E-04
   16.84000     -8.8838622E-04
   16.86000     -9.1059896E-04
   16.88000     -9.2687597E-04
   16.90000     -9.3758071E-04
   16.92000     -9.4308081E-04