  -2.400000      0.0000000E+00
  -2.380000      0.0000000E+00
  -2.360000      0.0000000E+00
  -2.340000      0.0000000E+00
  -2.320000      0.0000000E+00
  -2.300000      0.0000000E+00
  -2.280000      0.0000000E+00
  -2.260000      0.0000000E+00
  -2.240000      0.0000000E+00
  -2.220000      0.0000000E+00
  -2.200000      0.0000000E+00
  -2.180000      0.0000000E+00
  -2.160000      0.0000000E+00
  -2.140000      0.0000000E+00
  -2.120000      0.0000000E+00
  -2.100000      0.0000000E+00
  -2.080000      0.0000000E+00
  -2.060000      0.0000000E+00
  -2.040000      0.0000000E+00
  -2.020000      0.0000000E+00
  -2.000000      0.0000000E+00
  -1.980000      0.0000000E+00
  -1.960000      0.0000000E+00
  -1.940000      0.0000000E+00
  -1.920000      0.0000000E+00
  -1.900000      0.0000000E+00
  -1.880000      0.0000000E+00
  -1.860000      0.0000000E+00
  -1.840000      0.0000000E+00
  -1.820000      0.0000000E+00
  -1.800000      0.0000000E+00
  -1.780000      0.0000000E+00
  -1.760000      0.0000000E+00
  -1.740000      0.0000000E+00
  -1.720000      0.0000000E+00
  -1.700000      0.0000000E+00
  -1.680000      0.0000000E+00
  -1.660000      0.0000000E+00
  -1.640000      0.0000000E+00
  -1.620000      0.0000000E+00
  -1.600000      0.0000000E+00
  -1.580000      0.0000000E+00
  -1.560000      0.0000000E+00
  -1.540000      0.0000000E+00
  -1.520000      0.0000000E+00
  -1.500000      0.0000000E+00
  -1.480000      0.0000000E+00
  -1.460000      0.0000000E+00
  -1.440000      0.0000000E+00
  -1.420000      0.0000000E+00
  -1.400000      0.0000000E+00
  -1.380000      0.0000000E+00
  -1.360000      0.0000000E+00
  -1.340000      0.0000000E+00
  -1.320000      0.0000000E+00
  -1.300000      0.0000000E+00
  -1.280000      0.0000000E+00
  -1.260000      0.0000000E+00
  -1.240000      0.0000000E+00
  -1.220000      0.0000000E+00
  -1.200000      0.0000000E+00
  -1.180000      0.0000000E+00
  -1.160000      0.0000000E+00
  -1.140000      0.0000000E+00
  -1.120000      0.0000000E+00
  -1.100000      0.0000000E+00
  -1.080000      0.0000000E+00
  -1.060000      0.0000000E+00
  -1.040000      0.0000000E+00
  -1.020000      0.0000000E+00
  -1.000000      0.0000000E+00
 -0.9800000      0.0000000E+00
 -0.9600000      0.0000000E+00
 -0.9400000      0.0000000E+00
 -0.9200000      0.0000000E+00
 -0.9000000      0.0000000E+00
 -0.8800000      0.0000000E+00
 -0.8600000      0.0000000E+00
 -0.8400000      0.0000000E+00
 -0.8200000      0.0000000E+00
 -0.8000000      0.0000000E+00
 -0.7800000      0.0000000E+00
 -0.7600000      0.0000000E+00
 -0.7400000      0.0000000E+00
 -0.7200000      0.0000000E+00
 -0.7000000      0.0000000E+00
 -0.6800000      0.0000000E+00
 -0.6600000      0.0000000E+00
 -0.6400000      0.0000000E+00
 -0.6200000      0.0000000E+00
 -0.6000000      0.0000000E+00
 -0.5800000      0.0000000E+00
 -0.5600000      0.0000000E+00
 -0.5400000      0.0000000E+00
 -0.5200000      0.0000000E+00
 -0.5000000      0.0000000E+00
 -0.4800000      0.0000000E+00
 -0.4600000      0.0000000E+00
 -0.4400000      0.0000000E+00
 -0.4200000      0.0000000E+00
 -0.4000000      0.0000000E+00
 -0.3800000      0.0000000E+00
 -0.3600000      0.0000000E+00
 -0.3400000      0.0000000E+00
 -0.3200000      0.0000000E+00
 -0.3000000      0.0000000E+00
 -0.2800000      0.0000000E+00
 -0.2600000      0.0000000E+00
 -0.2400000      0.0000000E+00
 -0.2200000      0.0000000E+00
 -0.2000000      0.0000000E+00
 -0.1800000      0.0000000E+00
 -0.1600000      0.0000000E+00
 -0.1400000      0.0000000E+00
 -0.1200000      0.0000000E+00
 -0.1000000      0.0000000E+00
 -7.9999998E-02  0.0000000E+00
 -5.9999999E-02  0.0000000E+00
 -3.9999999E-02  0.0000000E+00
 -2.0000000E-02  0.0000000E+00
  0.0000000E+00  0.0000000E+00
  2.0000000E-02  0.0000000E+00
  3.9999999E-02  0.0000000E+00
  5.9999999E-02  0.0000000E+00
  7.9999998E-02  0.0000000E+00
  0.1000000      0.0000000E+00
  0.1200000      0.0000000E+00
  0.1400000      0.0000000E+00
  0.1600000      0.0000000E+00
  0.1800000      0.0000000E+00
  0.2000000      0.0000000E+00
  0.2200000      0.0000000E+00
  0.2400000      0.0000000E+00
  0.2600000      0.0000000E+00
  0.2800000      0.0000000E+00
  0.3000000      0.0000000E+00
  0.3200000      0.0000000E+00
  0.3400000      0.0000000E+00
  0.3600000      0.0000000E+00
  0.3800000      0.0000000E+00
  0.4000000      0.0000000E+00
  0.4200000      0.0000000E+00
  0.4400000      0.0000000E+00
  0.4600000      0.0000000E+00
  0.4800000      0.0000000E+00
  0.5000000      0.0000000E+00
  0.5200000      0.0000000E+00
  0.5400000      0.0000000E+00
  0.5600000      0.0000000E+00
  0.5800000      0.0000000E+00
  0.6000000      0.0000000E+00
  0.6200000      0.0000000E+00
  0.6400000      0.0000000E+00
  0.6600000      0.0000000E+00
  0.6800000      0.0000000E+00
  0.7000000      0.0000000E+00
  0.7200000      0.0000000E+00
  0.7400000      0.0000000E+00
  0.7600000      0.0000000E+00
  0.7800000      0.0000000E+00
  0.8000000      0.0000000E+00
  0.8200000     -1.2406979E-38
  0.8400000     -3.1604230E-38
  0.8600000     -4.9548299E-38
  0.8800000     -5.2523475E-38
  0.9000000     -1.7480547E-38
  0.9200000     -4.2943100E-38
  0.9400000     -1.7998829E-37
  0.9600000     -4.3255900E-37
  0.9800000     -5.3568887E-37
   1.000000      6.1537008E-38
   1.020000      1.3566044E-36
   1.040000      2.1349222E-36
   1.060000      5.7221169E-37
   1.080000     -3.2041623E-36
   1.100000     -4.9125232E-36
   1.120000      6.9352476E-37
   1.140000      1.2956691E-35
   1.160000      1.9233137E-35
   1.180000      3.1672678E-36
   1.200000     -3.4292815E-35
   1.220000     -6.1633264E-35
   1.240000     -3.2994106E-35
   1.260000      6.4598879E-35
   1.280000      1.6748608E-34
   1.300000      1.4966920E-34
   1.320000     -7.1895949E-35
   1.340000     -3.9764063E-34
   1.360000     -5.1433425E-34
   1.380000     -9.8425382E-35
   1.400000      7.9483402E-34
   1.420000      1.4814016E-33
   1.440000      9.5451932E-34
   1.460000     -1.1597688E-33
   1.480000     -3.6263237E-33
   1.500000     -3.7735867E-33
   1.520000      4.5762868E-34
   1.540000      7.5491599E-33
   1.560000      1.1361234E-32
   1.580000      4.7876324E-33
   1.600000     -1.2563252E-32
   1.620000     -2.8676470E-32
   1.640000     -2.3725531E-32
   1.660000      1.2601467E-32
   1.680000      6.1807975E-32
   1.700000      7.6518869E-32
   1.720000      1.4061847E-32
   1.740000     -1.1059029E-31
   1.760000     -1.9988052E-31
   1.780000     -1.2599747E-31
   1.800000      1.4424457E-31
   1.820000      4.4383399E-31
   1.840000      4.5409667E-31
   1.860000     -3.9770877E-32
   1.880000     -8.3296498E-31
   1.900000     -1.2420965E-30
   1.920000     -5.4597415E-31
   1.940000      1.2309681E-30
   1.960000      2.8423929E-30
   1.980000      2.3908577E-30
   2.000000     -9.9600426E-31
   2.020000     -5.5223235E-30
   2.040000     -6.9608976E-30
   2.060000     -1.7296154E-30
   2.080000      8.7582627E-30
   2.100000      1.6444047E-29
   2.120000      1.1200887E-29
   2.140000     -9.4440909E-30
   2.160000     -3.2833127E-29
   2.180000     -3.5480396E-29
   2.200000     -1.7527213E-30
   2.220000      5.4484305E-29
   2.240000      8.6821464E-29
   2.260000      4.6378129E-29
   2.280000     -6.7443232E-29
   2.300000     -1.7757955E-28
   2.320000     -1.6535229E-28
   2.340000      2.8058618E-29
   2.360000      3.0447527E-28
   2.380000      4.2152434E-28
   2.400000      1.6511328E-28
   2.420000     -4.0936801E-28
   2.440000     -8.8240775E-28
   2.460000     -7.0454798E-28
   2.480000      3.0227998E-28
   2.500000      1.5529623E-27
   2.520000      1.8873072E-27
   2.540000      4.6010019E-28
   2.560000     -2.2115463E-27
   2.580000     -4.0478287E-27
   2.600000     -2.7167220E-27
   2.620000      2.0957276E-27
   2.640000      7.2954111E-27
   2.660000      7.7709432E-27
   2.680000      5.8672931E-28
   2.700000     -1.0883328E-26
   2.720000     -1.7163757E-26
   2.740000     -9.2410826E-27
   2.760000      1.2009436E-26
   2.780000      3.1738111E-26
   2.800000      2.9237795E-26
   2.820000     -3.9355720E-27
   2.840000     -4.9358260E-26
   2.860000     -6.7249794E-26
   2.880000     -2.6322421E-26
   2.900000      6.0533131E-26
   2.920000      1.2809467E-25
   2.940000      9.9601584E-26
   2.960000     -4.1521768E-26
   2.980000     -2.0684527E-25
   3.000000     -2.4276576E-25
   3.020000     -5.4173981E-26
   3.040000      2.7372436E-25
   3.060000      4.7851109E-25
   3.080000      3.0210560E-25
   3.100000     -2.5057420E-25
   3.120000     -7.9976030E-25
   3.140000     -8.0233899E-25
   3.160000     -1.8198793E-26
   3.180000      1.1210462E-24
   3.200000      1.6490855E-24
   3.220000      7.8888590E-25
   3.240000     -1.2027217E-24
   3.260000     -2.8529490E-24
   3.280000     -2.4104246E-24
   3.300000      5.5540866E-25
   3.320000      4.1914633E-24
   3.340000      5.2394181E-24
   3.360000      1.6421940E-24
   3.380000     -4.9737936E-24
   3.400000     -9.4123980E-24
   3.420000     -6.5353067E-24
   3.440000      3.7426287E-24
   3.460000      1.4405774E-23
   3.480000      1.5363588E-23
   3.500000      1.9897669E-24
   3.520000     -1.8349870E-23
   3.540000     -2.8836274E-23
   3.560000     -1.5769980E-23
   3.580000      1.7154120E-23
   3.600000      4.5931799E-23
   3.620000      4.1675118E-23
   3.640000     -3.6493001E-24
   3.660000     -6.1983174E-23
   3.680000     -8.2766851E-23
   3.700000     -3.2808135E-23
   3.720000      6.6036190E-23
   3.740000      1.3789549E-22
   3.760000      1.0539623E-22
   3.780000     -3.7836091E-23
   3.800000     -1.9613158E-22
   3.820000     -2.2599613E-22
   3.840000     -5.4297239E-23
   3.860000      2.2849107E-22
   3.880000      3.9621805E-22
   3.900000      2.5185282E-22
   3.920000     -1.7805732E-22
   3.940000     -5.9101782E-22
   3.960000     -5.9597697E-22
   3.980000     -4.7592843E-23
   4.000000      7.3413754E-22
   4.020000      1.1024871E-21
   4.040000      5.7367848E-22
   4.060000     -6.6834209E-22
   4.080000     -1.7155914E-21
   4.100000     -1.5319995E-21
   4.120000      1.3061309E-22
   4.140000      2.2368725E-21
   4.160000      2.9922352E-21
   4.180000      1.2447176E-21
   4.200000     -2.2370579E-21
   4.220000     -4.8300845E-21
   4.240000     -3.8537804E-21
   4.260000      9.8352916E-22
   4.280000      6.5254243E-21
   4.300000      7.9272256E-21
   4.320000      2.5441664E-21
   4.340000     -6.9252272E-21
   4.360000     -1.3167214E-20
   4.380000     -9.4423903E-21
   4.400000      4.0731714E-21
   4.420000      1.8226279E-20
   4.440000      2.0359135E-20
   4.460000      4.7186494E-21
   4.480000     -2.0128846E-20
   4.500000     -3.4576932E-20
   4.520000     -2.2315805E-20
   4.540000      1.3866825E-20
   4.560000      4.8715019E-20
   4.580000      5.0437932E-20
   4.600000      7.4054653E-21
   4.620000     -5.5275782E-20
   4.640000     -8.7316604E-20
   4.660000     -5.0906016E-20
   4.680000      4.1690995E-20
   4.700000      1.2440454E-19
   4.720000      1.2071606E-19
   4.740000      8.8869151E-21
   4.760000     -1.4297255E-19
   4.780000     -2.1185153E-19
   4.800000     -1.1342467E-19
   4.820000      1.1249019E-19
   4.840000      3.0262367E-19
   4.860000      2.8014033E-19
   4.880000      6.4358901E-21
   4.900000     -3.4754301E-19
   4.920000     -4.9464863E-19
   4.940000     -2.5136969E-19
   4.960000      2.7485793E-19
   4.980000      7.0274623E-19
   5.000000      6.3657173E-19
   5.020000      4.7975163E-21
   5.040000     -7.9514959E-19
   5.060000     -1.1197796E-18
   5.080000     -5.6999734E-19
   5.100000      6.0586761E-19
   5.120000      1.5632396E-18
   5.140000      1.4338268E-18
   5.160000      5.7914986E-20
   5.180000     -1.7075971E-18
   5.200000     -2.4680218E-18
   5.220000     -1.3385475E-18
   5.240000      1.1887887E-18
   5.260000      3.3309788E-18
   5.280000      3.2033266E-18
   5.300000      3.7229437E-19
   5.320000     -3.4422641E-18
   5.340000     -5.2977212E-18
   5.360000     -3.1924641E-18
   5.380000      2.0535121E-18
   5.400000      6.8268990E-18
   5.420000      7.0700103E-18
   5.440000      1.5341927E-18
   5.460000     -6.5461059E-18
   5.480000     -1.1098501E-17
   5.500000     -7.5706134E-18
   5.520000      2.9780742E-18
   5.540000      1.3479339E-17
   5.560000      1.5310891E-17
   5.580000      5.0267671E-18
   5.600000     -1.1659435E-17
   5.620000     -2.2522628E-17
   5.640000     -1.7403013E-17
   5.660000      3.0188693E-18
   5.680000      2.5407311E-17
   5.700000      3.1930780E-17
   5.720000      1.3874512E-17
   5.740000     -1.9278740E-17
   5.760000     -4.3722633E-17
   5.780000     -3.7747845E-17
   5.800000      9.1412802E-20
   5.820000      4.5587062E-17
   5.840000      6.3344519E-17
   5.860000      3.3360737E-17
   5.880000     -2.9569847E-17
   5.900000     -8.0954532E-17
   5.920000     -7.6942038E-17
   5.940000     -1.0098028E-17
   5.960000      7.7541949E-17
   5.980000      1.1917779E-16
   6.000000      7.2747286E-17
   6.020000     -4.0448854E-17
   6.040000     -1.4144237E-16
   6.060000     -1.4704671E-16
   6.080000     -3.6212250E-17
   6.100000      1.2224954E-16
   6.120000      2.0971523E-16
   6.140000      1.4470761E-16
   6.160000     -4.5633427E-17
   6.180000     -2.2974975E-16
   6.200000     -2.6033902E-16
   6.220000     -8.9556621E-17
   6.240000      1.7761406E-16
   6.260000      3.4399376E-16
   6.280000      2.6334114E-16
   6.300000     -3.6226279E-17
   6.320000     -3.4969493E-16
   6.340000     -4.3249534E-16
   6.360000     -1.8799630E-16
   6.380000      2.3651820E-16
   6.400000      5.3327389E-16
   6.420000      4.5430538E-16
   6.440000      1.2843975E-17
   6.460000     -4.9438978E-16
   6.480000     -6.8316230E-16
   6.500000     -3.6918069E-16
   6.520000      2.6574605E-16
   6.540000      7.7150286E-16
   6.560000      7.4548587E-16
   6.580000      1.4711644E-16
   6.600000     -6.3080751E-16
   6.620000     -1.0147224E-15
   6.640000     -6.6821079E-16
   6.660000      2.2595332E-16
   6.680000      1.0483385E-15
   6.700000      1.1655355E-15
   6.720000      4.0875841E-16
   6.740000     -7.4718147E-16
   6.760000     -1.4712415E-15
   6.780000     -1.1636795E-15
   6.800000      6.5046373E-17
   6.820000      1.3954693E-15
   6.840000      1.8335261E-15
   6.860000      9.3870224E-16
   6.880000     -7.7737878E-16
   6.900000     -2.1203280E-15
   6.920000     -2.0294897E-15
   6.940000     -3.9551073E-16
   6.960000      1.7370648E-15
   6.980000      2.8146022E-15
   7.000000      1.8891602E-15
   7.020000     -5.8165811E-16
   7.040000     -2.9024223E-15
   7.060000     -3.2783815E-15
   7.080000     -1.1825745E-15
   7.100000      2.0723485E-15
   7.120000      4.1109274E-15
   7.140000      3.2025219E-15
   7.160000     -3.0589944E-16
   7.180000     -3.9935960E-15
   7.200000     -4.9999665E-15
   7.220000     -2.2184267E-15
   7.240000      2.6138886E-15
   7.260000      5.9424503E-15
   7.280000      4.9926968E-15
   7.300000      5.9659833E-17
   7.320000     -5.3848616E-15
   7.340000     -7.1161220E-15
   7.360000     -3.4505439E-15
   7.380000      3.1588033E-15
   7.400000      7.7081040E-15
   7.420000      6.4533810E-15
   7.440000      5.0691967E-17
   7.460000     -6.6282429E-15
   7.480000     -8.1757246E-15
   7.500000     -3.0879639E-15
   7.520000      4.6917748E-15
   7.540000      8.7053396E-15
   7.560000      5.3107263E-15
   7.580000     -2.9422524E-15
   7.600000     -9.0167487E-15
   7.620000     -7.2111608E-15
   7.640000      1.5901144E-15
   7.660000      9.9755104E-15
   7.680000      9.9731463E-15
   7.700000      3.1419912E-16
   7.720000     -1.1410347E-14
   7.740000     -1.4403433E-14
   7.760000     -4.1636159E-15
   7.780000      1.2225199E-14
   7.800000      2.0543248E-14
   7.820000      1.1237196E-14
   7.840000     -1.0861898E-14
   7.860000     -2.8085629E-14
   7.880000     -2.3405003E-14
   7.900000      4.0464369E-15
   7.920000      3.4853712E-14
   7.940000      4.2357848E-14
   7.960000      1.4560142E-14
   7.980000     -3.2550270E-14
   8.000000     -6.3244582E-14
   8.020000     -4.8551705E-14
   8.040000      8.3543893E-15
   8.060000      6.9303585E-14
   8.080000      8.6615001E-14
   8.100000      4.0083219E-14
   8.120000     -4.3079496E-14
   8.140000     -1.0363393E-13
   8.160000     -9.2943800E-14
   8.180000     -1.1990016E-14
   8.200000      8.4399637E-14
   8.220000      1.2473300E-13
   8.240000      7.4119896E-14
   8.260000     -3.6271503E-14
   8.280000     -1.2788392E-13
   8.300000     -1.3046003E-13
   8.320000     -3.4851814E-14
   8.340000      9.6601919E-14
   8.360000      1.7146401E-13
   8.380000      1.3180441E-13
   8.400000     -3.7774366E-15
   8.420000     -1.5043897E-13
   8.440000     -2.1237932E-13
   8.460000     -1.4517165E-13
   8.480000      1.5816521E-14
   8.500000      1.7735015E-13
   8.520000      2.4429317E-13
   8.540000      1.7462442E-13
   8.560000      3.0070659E-15
   8.580000     -1.7740289E-13
   8.600000     -2.6391370E-13
   8.620000     -2.0023937E-13
   8.640000     -1.2769106E-14
   8.660000      1.9391608E-13
   8.680000      2.8835628E-13
   8.700000      1.9183506E-13
   8.720000     -5.7319180E-14
   8.740000     -3.0428481E-13
   8.760000     -3.6282780E-13
   8.780000     -1.4629765E-13
   8.800000      2.4304587E-13
   8.820000      5.4761496E-13
   8.840000      5.1653153E-13
   8.860000      9.9368735E-14
   8.880000     -4.7460457E-13
   8.900000     -8.1867331E-13
   8.920000     -6.5511680E-13
   8.940000     -4.1279747E-14
   8.960000      6.2965871E-13
   8.980000      8.8728655E-13
   9.000000      5.3279532E-13
   9.020000     -1.8656043E-13
   9.040000     -7.3459766E-13
   9.060000     -6.8280489E-13
   9.080000     -5.1495731E-14
   9.100000      6.8193883E-13
   9.120000      9.3783379E-13
   9.140000      4.8809221E-13
   9.160000     -3.5419110E-13
   9.180000     -9.7613508E-13
   9.200000     -9.5394341E-13
   9.220000     -3.8803167E-13
   9.240000      2.0404028E-13
   9.260000      3.5465698E-13
   9.280000      6.8109072E-14
   9.300000     -1.9139207E-13
   9.320000      3.7342427E-14
   9.340000      7.0542064E-13
   9.360000      1.2001550E-12
   9.380000      8.7341039E-13
   9.400000     -2.6591809E-13
   9.420000     -1.3514142E-12
   9.440000     -1.2628991E-12
   9.460000      3.5684883E-13
   9.480000      2.5360254E-12
   9.500000      3.4854886E-12
   9.520000      1.9588684E-12
   9.540000     -1.5777814E-12
   9.560000     -5.0307909E-12
   9.580000     -6.1640697E-12
   9.600000     -4.4240861E-12
   9.620000     -1.5660862E-12
   9.640000     -3.3357824E-13
   9.660000     -2.0185390E-12
   9.680000     -4.8491736E-12
   9.700000     -4.7794182E-12
   9.720000      1.5206552E-12
   9.740000      1.3557069E-11
   9.760000      2.6298198E-11
   9.780000      3.2792616E-11
   9.800000      2.8529625E-11
   9.820000      1.4427479E-11
   9.840000     -3.8568272E-12
   9.860000     -1.9903489E-11
   9.880000     -3.0830272E-11
   9.900000     -3.8588896E-11
   9.920000     -4.7194210E-11
   9.940000     -5.8044420E-11
   9.960000     -6.7120746E-11
   9.980000     -6.6506502E-11
   10.00000     -4.9308727E-11
   10.02000     -1.4342839E-11
   10.04000      3.2927820E-11
   10.06000      8.3766293E-11
   10.08000      1.3101988E-10
   10.10000      1.7154388E-10
   10.12000      2.0440286E-10
   10.14000      2.2664637E-10
   10.16000      2.3050954E-10
   10.18000      2.0469956E-10
   10.20000      1.3904503E-10
   10.22000      2.9142015E-11
   10.24000     -1.2199422E-10
   10.26000     -3.0527589E-10
   10.28000     -5.0710125E-10
   10.30000     -7.0845202E-10
   10.32000     -8.8195662E-10
   10.34000     -9.9058994E-10
   10.36000     -9.9175124E-10
   10.38000     -8.4668644E-10
   10.40000     -5.3056315E-10
   10.42000     -3.7270187E-11
   10.44000      6.2304795E-10
   10.46000      1.4294071E-09
   10.48000      2.3508377E-09
   10.50000      3.3385674E-09
   10.52000      4.3134003E-09
   10.54000      5.1582556E-09
   10.56000      5.7241318E-09
   10.58000      5.8484479E-09
   10.60000      5.3746114E-09
   10.62000      4.1592378E-09
   10.64000      2.0616777E-09
   10.66000     -1.0764188E-09
   10.68000     -5.4462648E-09
   10.70000     -1.1271574E-08
   10.72000     -1.8796669E-08
   10.74000     -2.8279228E-08
   10.76000     -4.0003410E-08
   10.78000     -5.4315404E-08
   10.80000     -7.1666882E-08
   10.82000     -9.2646594E-08
   10.84000     -1.1799180E-07
   10.86000     -1.4859063E-07
   10.88000     -1.8549828E-07
   10.90000     -2.2998336E-07
   10.92000     -2.8359963E-07
   10.94000     -3.4825987E-07
   10.96000     -4.2628861E-07
   10.98000     -5.2045050E-07
   11.00000     -6.3397567E-07
   11.02000     -7.7060997E-07
   11.04000     -9.3470322E-07
   11.06000     -1.1313225E-06
   11.08000     -1.3663599E-06
   11.10000     -1.6466169E-06
   11.12000     -1.9798808E-06
   11.14000     -2.3750295E-06
   11.16000     -2.8421978E-06
   11.18000     -3.3930014E-06
   11.20000     -4.0407795E-06
   11.22000     -4.8007951E-06
   11.24000     -5.6903850E-06
   11.26000     -6.7290721E-06
   11.28000     -7.9387155E-06
   11.30000     -9.3437320E-06
   11.32000     -1.0971383E-05
   11.34000     -1.2852070E-05
   11.36000     -1.5019573E-05
   11.38000     -1.7511200E-05
   11.40000     -2.0367912E-05
   11.42000     -2.3634457E-05
   11.44000     -2.7359543E-05
   11.46000     -3.1596082E-05
   11.48000     -3.6401336E-05
   11.50000     -4.1836927E-05
   11.52000     -4.7968748E-05
   11.54000     -5.4866694E-05
   11.56000     -6.2604457E-05
   11.58000     -7.1259296E-05
   11.60000     -8.0911770E-05
   11.62000     -9.1645335E-05
   11.64000     -1.0354580E-04
   11.66000     -1.1670050E-04
   11.68000     -1.3119748E-04
   11.70000     -1.4712445E-04
   11.72000     -1.6456761E-04
   11.74000     -1.8361039E-04
   11.76000     -2.0433193E-04
   11.78000     -2.2680538E-04
   11.80000     -2.5109603E-04
   11.82000     -2.7725947E-04
   11.84000     -3.0533946E-04
   11.86000     -3.3536588E-04
   11.88000     -3.6735254E-04
   11.90000     -4.0129447E-04
   11.92000     -4.3716544E-04
   11.94000     -4.7491549E-04
   11.96000     -5.1446864E-04
   11.98000     -5.5572111E-04
   12.00000     -5.9853966E-04
   12.02000     -6.4275897E-04
   12.04000     -6.8817969E-04
   12.06000     -7.3456607E-04
   12.08000     -7.8164513E-04
   12.10000     -8.2910579E-04
   12.12000     -8.7659957E-04
   12.14000     -9.2374074E-04
   12.16000     -9.7010692E-04
   12.18000     -1.0152403E-03
   12.20000     -1.0586486E-03
   12.22000     -1.0998078E-03
   12.24000     -1.1381658E-03
   12.26000     -1.1731476E-03
   12.28000     -1.2041609E-03
   12.30000     -1.2306005E-03
   12.32000     -1.2518549E-03
   12.34000     -1.2673102E-03
   12.36000     -1.2763578E-03
   12.38000     -1.2784033E-03
   12.40000     -1.2728760E-03
   12.42000     -1.2592383E-03
   12.44000     -1.2369938E-03
   12.46000     -1.2056961E-03
   12.48000     -1.1649561E-03
   12.50000     -1.1144503E-03
   12.52000     -1.0539296E-03
   12.54000     -9.8322786E-04
   12.56000     -9.0226985E-04
   12.58000     -8.1107731E-04
   12.60000     -7.0977345E-04
   12.62000     -5.9858651E-04
   12.64000     -4.7785201E-04
   12.66000     -3.4801511E-04
   12.68000     -2.0963134E-04
   12.70000     -6.3366657E-05
   12.72000      9.0005116E-05
   12.74000      2.4960728E-04
   12.76000      4.1446701E-04
   12.78000      5.8352342E-04
   12.80000      7.5563655E-04
   12.82000      9.2959736E-04
   12.84000      1.1041394E-03
   12.86000      1.2779511E-03
   12.88000      1.4496902E-03
   12.90000      1.6179975E-03
   12.92000      1.7815122E-03
   12.94000      1.9388867E-03
   12.96000      2.0888038E-03
   12.98000      2.2299911E-03
   13.00000      2.3612396E-03
   13.02000      2.4814154E-03
   13.04000      2.5894737E-03
   13.06000      2.6844714E-03
   13.08000      2.7655773E-03
   13.10000      2.8320828E-03
   13.12000      2.8834133E-03
   13.14000      2.9191354E-03
   13.16000      2.9389618E-03
   13.18000      2.9427537E-03
   13.20000      2.9305196E-03
   13.22000      2.9024137E-03
   13.24000      2.8587338E-03
   13.26000      2.7999189E-03
   13.28000      2.7265463E-03
   13.30000      2.6393202E-03
   13.32000      2.5390626E-03
   13.34000      2.4266995E-03
   13.36000      2.3032478E-03
   13.38000      2.1698039E-03
   13.40000      2.0275326E-03
   13.42000      1.8776526E-03
   13.44000      1.7214250E-03
   13.46000      1.5601341E-03
   13.48000      1.3950710E-03
   13.50000      1.2275175E-03
   13.52000      1.0587327E-03
   13.54000      8.8994362E-04
   13.56000      7.2233449E-04
   13.58000      5.5703678E-04
   13.60000      3.9511645E-04
   13.62000      2.3756252E-04
   13.64000      8.5279302E-05
   13.66000     -6.0917377E-05
   13.68000     -2.0030174E-04
   13.70000     -3.3223972E-04
   13.72000     -4.5619317E-04
   13.74000     -5.7172461E-04
   13.76000     -6.7849929E-04
   13.78000     -7.7628123E-04
   13.80000     -8.6492550E-04
   13.82000     -9.4437011E-04
   13.84000     -1.0146309E-03
   13.86000     -1.0758011E-03
   13.88000     -1.1280519E-03
   13.90000     -1.1716255E-03
   13.92000     -1.2068256E-03
   13.94000     -1.2340028E-03
   13.96000     -1.2535432E-03
   13.98000     -1.2658647E-03
   14.00000     -1.2714164E-03
   14.02000     -1.2706771E-03
   14.04000     -1.2641472E-03
   14.06000     -1.2523375E-03
   14.08000     -1.2357542E-03
   14.10000     -1.2148940E-03
   14.12000     -1.1902424E-03
   14.14000     -1.1622779E-03
   14.16000     -1.1314715E-03
   14.18000     -1.0982811E-03
   14.20000     -1.0631421E-03
   14.22000     -1.0264597E-03
   14.24000     -9.8860601E-04
   14.26000     -9.4992266E-04
   14.28000     -9.1072638E-04
   14.30000     -8.7131053E-04
   14.32000     -8.3194394E-04
   14.34000     -7.9286733E-04
   14.36000     -7.5429003E-04
   14.38000     -7.1639131E-04
   14.40000     -6.7932531E-04
   14.42000     -6.4322539E-04
   14.44000     -6.0820591E-04
   14.46000     -5.7435973E-04
   14.48000     -5.4175546E-04
   14.50000     -5.1043771E-04
   14.52000     -4.8043238E-04
   14.54000     -4.5175469E-04
   14.56000     -4.2441461E-04
   14.58000     -3.9841607E-04
   14.60000     -3.7375107E-04
   14.62000     -3.5039452E-04
   14.64000     -3.2830556E-04
   14.66000     -3.0743628E-04
   14.68000     -2.8774250E-04
   14.70000     -2.6918846E-04
   14.72000     -2.5174129E-04
   14.74000     -2.3535991E-04
   14.76000     -2.1998746E-04
   14.78000     -2.0555468E-04
   14.80000     -1.9199331E-04
   14.82000     -1.7924984E-04
   14.84000     -1.6728911E-04
   14.86000     -1.5608441E-04
   14.88000     -1.4560130E-04
   14.90000     -1.3578786E-04
   14.92000     -1.2657970E-04
   14.94000     -1.1791644E-04
   14.96000     -1.0975757E-04
   14.98000     -1.0208523E-04
   15.00000     -9.4891489E-05
   15.02000     -8.8159315E-05
   15.04000     -8.1851947E-05
   15.06000     -7.5918688E-05
   15.08000     -7.0312752E-05
   15.10000     -6.5007378E-05
   15.12000     -5.9997601E-05
   15.14000     -5.5286600E-05
   15.16000     -5.0867820E-05
   15.18000     -4.6717189E-05
   15.20000     -4.2801395E-05
   15.22000     -3.9094975E-05
   15.24000     -3.5591536E-05
   15.26000     -3.2299380E-05
   15.28000     -2.9225046E-05
   15.30000     -2.6358768E-05
   15.32000     -2.3674515E-05
   15.34000     -2.1145081E-05
   15.36000     -1.8759509E-05
   15.38000     -1.6527640E-05
   15.40000     -1.4467162E-05
   15.42000     -1.2583630E-05
   15.44000     -1.0860718E-05
   15.46000     -9.2699111E-06
   15.48000     -7.7923542E-06
   15.50000     -6.4343881E-06
   15.52000     -5.2224268E-06
   15.54000     -4.1796534E-06
   15.56000     -3.3029316E-06
   15.58000     -2.5596519E-06
   15.60000     -1.9089782E-06
   15.62000     -1.3318421E-06
   15.64000     -8.4565426E-07
   15.66000     -4.9053500E-07
   15.68000     -2.9621907E-07
   15.70000     -2.5497548E-07
   15.72000     -3.2251882E-07
   15.74000     -4.4771406E-07
   15.76000     -6.0906734E-07
   15.78000     -8.2959906E-07
   15.80000     -1.1575095E-06
   15.82000     -1.6264100E-06
   15.84000     -2.2253198E-06
   15.86000     -2.9019311E-06
   15.88000     -3.5973490E-06
   15.90000     -4.2859542E-06
   15.92000     -4.9896835E-06
   15.94000     -5.7556613E-06
   15.96000     -6.6147409E-06
   15.98000     -7.5535877E-06
   16.00000     -8.5221955E-06
   16.02000     -9.4704665E-06
   16.04000     -1.0384198E-05
   16.06000     -1.1291393E-05
   16.08000     -1.2234078E-05
   16.10000     -1.3229099E-05
   16.12000     -1.4250455E-05
   16.14000     -1.5247923E-05
   16.16000     -1.6186328E-05
   16.18000     -1.7072349E-05
   16.20000     -1.7945902E-05
   16.22000     -1.8843035E-05
   16.24000     -1.9761836E-05
   16.26000     -2.0661095E-05
   16.28000     -2.1494126E-05
   16.30000     -2.2249669E-05
   16.32000     -2.2964296E-05
   16.34000     -2.3693643E-05
   16.36000     -2.4464678E-05
   16.38000     -2.5249085E-05
   16.40000     -2.5982476E-05
   16.42000     -2.6616633E-05
   16.44000     -2.7163043E-05
   16.46000     -2.7690196E-05
   16.48000     -2.8273027E-05
   16.50000     -2.8932573E-05
   16.52000     -2.9614614E-05
   16.54000     -3.0227655E-05
   16.56000     -3.0713662E-05
   16.58000     -3.1096963E-05
   16.60000     -3.1471041E-05
   16.62000     -3.1930223E-05
   16.64000     -3.2497348E-05
   16.66000     -3.3103857E-05
   16.68000     -3.3639750E-05
   16.70000     -3.4036624E-05
   16.72000     -3.4320114E-05
   16.74000     -3.4590408E-05
   16.76000     -3.4944955E-05
   16.78000     -3.5402962E-05
   16.80000     -3.5890404E-05
   16.82000     -3.6297439E-05
   16.84000     -3.6563113E-05
   16.86000     -3.6720907E-05
   16.88000     -3.6869769E-05
   16.90000     -3.7094331E-05
   16.92000     -3.7398237E-05