  -2.400000      0.0000000E+00
  -2.380000      0.0000000E+00
  -2.360000      0.0000000E+00
  -2.340000      0.0000000E+00
  -2.320000      0.0000000E+00
  -2.300000      0.0000000E+00
  -2.280000      0.0000000E+00
  -2.260000      0.0000000E+00
  -2.240000      0.0000000E+00
  -2.220000      0.0000000E+00
  -2.200000      0.0000000E+00
  -2.180000      0.0000000E+00
  -2.160000      0.0000000E+00
  -2.140000      0.0000000E+00
  -2.120000      0.0000000E+00
  -2.100000      0.0000000E+00
  -2.080000      0.0000000E+00
  -2.060000      0.0000000E+00
  -2.040000      0.0000000E+00
  -2.020000      0.0000000E+00
  -2.000000      0.0000000E+00
  -1.980000      0.0000000E+00
  -1.960000      0.0000000E+00
  -1.940000      0.0000000E+00
  -1.920000      0.0000000E+00
  -1.900000      0.0000000E+00
  -1.880000      0.0000000E+00
  -1.860000      0.0000000E+00
  -1.840000      0.0000000E+00
  -1.820000      0.0000000E+00
  -1.800000      0.0000000E+00
  -1.780000      0.0000000E+00
  -1.760000      0.0000000E+00
  -1.740000      0.0000000E+00
  -1.720000      0.0000000E+00
  -1.700000      0.0000000E+00
  -1.680000      0.0000000E+00
  -1.660000      0.0000000E+00
  -1.640000      0.0000000E+00
  -1.620000      0.0000000E+00
  -1.600000      0.0000000E+00
  -1.580000      0.0000000E+00
  -1.560000      0.0000000E+00
  -1.540000      0.0000000E+00
  -1.520000      0.0000000E+00
  -1.500000      0.0000000E+00
  -1.480000      0.0000000E+00
  -1.460000      0.0000000E+00
  -1.440000      0.0000000E+00
  -1.420000      0.0000000E+00
  -1.400000      0.0000000E+00
  -1.380000      0.0000000E+00
  -1.360000      0.0000000E+00
  -1.340000      0.0000000E+00
  -1.320000      0.0000000E+00
  -1.300000      0.0000000E+00
  -1.280000      0.0000000E+00
  -1.260000      0.0000000E+00
  -1.240000      0.0000000E+00
  -1.220000      0.0000000E+00
  -1.200000      0.0000000E+00
  -1.180000      0.0000000E+00
  -1.160000      0.0000000E+00
  -1.140000      0.0000000E+00
  -1.120000      0.0000000E+00
  -1.100000      0.0000000E+00
  -1.080000      0.0000000E+00
  -1.060000      0.0000000E+00
  -1.040000      0.0000000E+00
  -1.020000      0.0000000E+00
  -1.000000      0.0000000E+00
 -0.9800000      0.0000000E+00
 -0.9600000      0.0000000E+00
 -0.9400000      0.0000000E+00
 -0.9200000      0.0000000E+00
 -0.9000000      0.0000000E+00
 -0.8800000      0.0000000E+00
 -0.8600000      0.0000000E+00
 -0.8400000      0.0000000E+00
 -0.8200000      0.0000000E+00
 -0.8000000      0.0000000E+00
 -0.7800000      0.0000000E+00
 -0.7600000      0.0000000E+00
 -0.7400000      0.0000000E+00
 -0.7200000      0.0000000E+00
 -0.7000000      0.0000000E+00
 -0.6800000      0.0000000E+00
 -0.6600000      0.0000000E+00
 -0.6400000      0.0000000E+00
 -0.6200000      0.0000000E+00
 -0.6000000      0.0000000E+00
 -0.5800000      0.0000000E+00
 -0.5600000      0.0000000E+00
 -0.5400000      0.0000000E+00
 -0.5200000      0.0000000E+00
 -0.5000000      0.0000000E+00
 -0.4800000      0.0000000E+00
 -0.4600000      0.0000000E+00
 -0.4400000      0.0000000E+00
 -0.4200000      0.0000000E+00
 -0.4000000      0.0000000E+00
 -0.3800000      0.0000000E+00
 -0.3600000      0.0000000E+00
 -0.3400000      0.0000000E+00
 -0.3200000      0.0000000E+00
 -0.3000000      0.0000000E+00
 -0.2800000      0.0000000E+00
 -0.2600000      0.0000000E+00
 -0.2400000      0.0000000E+00
 -0.2200000      0.0000000E+00
 -0.2000000      0.0000000E+00
 -0.1800000      0.0000000E+00
 -0.1600000      0.0000000E+00
 -0.1400000      0.0000000E+00
 -0.1200000      0.0000000E+00
 -0.1000000      0.0000000E+00
 -7.9999998E-02  0.0000000E+00
 -5.9999999E-02  0.0000000E+00
 -3.9999999E-02  0.0000000E+00
 -2.0000000E-02  0.0000000E+00
  0.0000000E+00  0.0000000E+00
  2.0000000E-02  0.0000000E+00
  3.9999999E-02  0.0000000E+00
  5.9999999E-02  0.0000000E+00
  7.9999998E-02  0.0000000E+00
  0.1000000      0.0000000E+00
  0.1200000      0.0000000E+00
  0.1400000      0.0000000E+00
  0.1600000      0.0000000E+00
  0.1800000      0.0000000E+00
  0.2000000      0.0000000E+00
  0.2200000      0.0000000E+00
  0.2400000      0.0000000E+00
  0.2600000      0.0000000E+00
  0.2800000      0.0000000E+00
  0.3000000      0.0000000E+00
  0.3200000      0.0000000E+00
  0.3400000      0.0000000E+00
  0.3600000      0.0000000E+00
  0.3800000      0.0000000E+00
  0.4000000      0.0000000E+00
  0.4200000      0.0000000E+00
  0.4400000      0.0000000E+00
  0.4600000      0.0000000E+00
  0.4800000      0.0000000E+00
  0.5000000      0.0000000E+00
  0.5200000      0.0000000E+00
  0.5400000      0.0000000E+00
  0.5600000      0.0000000E+00
  0.5800000      0.0000000E+00
  0.6000000      0.0000000E+00
  0.6200000      0.0000000E+00
  0.6400000      0.0000000E+00
  0.6600000      0.0000000E+00
  0.6800000      0.0000000E+00
  0.7000000      0.0000000E+00
  0.7200000      0.0000000E+00
  0.7400000      0.0000000E+00
  0.7600000      0.0000000E+00
  0.7800000      0.0000000E+00
  0.8000000      0.0000000E+00
  0.8200000      0.0000000E+00
  0.8400000      0.0000000E+00
  0.8600000      0.0000000E+00
  0.8800000      0.0000000E+00
  0.9000000      0.0000000E+00
  0.9200000      0.0000000E+00
  0.9400000      0.0000000E+00
  0.9600000      0.0000000E+00
  0.9800000      0.0000000E+00
   1.000000      0.0000000E+00
   1.020000      0.0000000E+00
   1.040000      0.0000000E+00
   1.060000      0.0000000E+00
   1.080000      0.0000000E+00
   1.100000      0.0000000E+00
   1.120000      0.0000000E+00
   1.140000      0.0000000E+00
   1.160000      0.0000000E+00
   1.180000      0.0000000E+00
   1.200000      0.0000000E+00
   1.220000      0.0000000E+00
   1.240000      0.0000000E+00
   1.260000      0.0000000E+00
   1.280000      0.0000000E+00
   1.300000      0.0000000E+00
   1.320000      0.0000000E+00
   1.340000      0.0000000E+00
   1.360000      0.0000000E+00
   1.380000      0.0000000E+00
   1.400000      0.0000000E+00
   1.420000      0.0000000E+00
   1.440000      0.0000000E+00
   1.460000      0.0000000E+00
   1.480000      0.0000000E+00
   1.500000      0.0000000E+00
   1.520000      0.0000000E+00
   1.540000      0.0000000E+00
   1.560000      0.0000000E+00
   1.580000      0.0000000E+00
   1.600000      0.0000000E+00
   1.620000      0.0000000E+00
   1.640000      0.0000000E+00
   1.660000      0.0000000E+00
   1.680000      0.0000000E+00
   1.700000      0.0000000E+00
   1.720000      0.0000000E+00
   1.740000      0.0000000E+00
   1.760000      0.0000000E+00
   1.780000      0.0000000E+00
   1.800000      0.0000000E+00
   1.820000      0.0000000E+00
   1.840000      0.0000000E+00
   1.860000      0.0000000E+00
   1.880000      0.0000000E+00
   1.900000      0.0000000E+00
   1.920000      0.0000000E+00
   1.940000      0.0000000E+00
   1.960000      0.0000000E+00
   1.980000      0.0000000E+00
   2.000000      0.0000000E+00
   2.020000      0.0000000E+00
   2.040000      0.0000000E+00
   2.060000      0.0000000E+00
   2.080000      0.0000000E+00
   2.100000      0.0000000E+00
   2.120000      0.0000000E+00
   2.140000      0.0000000E+00
   2.160000      0.0000000E+00
   2.180000      0.0000000E+00
   2.200000      0.0000000E+00
   2.220000      0.0000000E+00
   2.240000      0.0000000E+00
   2.260000      0.0000000E+00
   2.280000      0.0000000E+00
   2.300000      0.0000000E+00
   2.320000      0.0000000E+00
   2.340000      0.0000000E+00
   2.360000      0.0000000E+00
   2.380000      0.0000000E+00
   2.400000      0.0000000E+00
   2.420000      0.0000000E+00
   2.440000      0.0000000E+00
   2.460000      0.0000000E+00
   2.480000      0.0000000E+00
   2.500000      0.0000000E+00
   2.520000      0.0000000E+00
   2.540000      0.0000000E+00
   2.560000      0.0000000E+00
   2.580000      0.0000000E+00
   2.600000      0.0000000E+00
   2.620000      0.0000000E+00
   2.640000      0.0000000E+00
   2.660000      0.0000000E+00
   2.680000      0.0000000E+00
   2.700000      0.0000000E+00
   2.720000      0.0000000E+00
   2.740000      0.0000000E+00
   2.760000      0.0000000E+00
   2.780000      0.0000000E+00
   2.800000      0.0000000E+00
   2.820000      0.0000000E+00
   2.840000      0.0000000E+00
   2.860000      0.0000000E+00
   2.880000      0.0000000E+00
   2.900000      0.0000000E+00
   2.920000      0.0000000E+00
   2.940000      0.0000000E+00
   2.960000      0.0000000E+00
   2.980000      0.0000000E+00
   3.000000      0.0000000E+00
   3.020000      0.0000000E+00
   3.040000      0.0000000E+00
   3.060000      0.0000000E+00
   3.080000      0.0000000E+00
   3.100000      0.0000000E+00
   3.120000      0.0000000E+00
   3.140000      0.0000000E+00
   3.160000      0.0000000E+00
   3.180000      0.0000000E+00
   3.200000      0.0000000E+00
   3.220000      0.0000000E+00
   3.240000      0.0000000E+00
   3.260000      0.0000000E+00
   3.280000      0.0000000E+00
   3.300000      0.0000000E+00
   3.320000      0.0000000E+00
   3.340000      0.0000000E+00
   3.360000      0.0000000E+00
   3.380000      0.0000000E+00
   3.400000      0.0000000E+00
   3.420000      0.0000000E+00
   3.440000      0.0000000E+00
   3.460000      0.0000000E+00
   3.480000      0.0000000E+00
   3.500000      0.0000000E+00
   3.520000      0.0000000E+00
   3.540000      0.0000000E+00
   3.560000      0.0000000E+00
   3.580000      0.0000000E+00
   3.600000      0.0000000E+00
   3.620000      0.0000000E+00
   3.640000      0.0000000E+00
   3.660000      0.0000000E+00
   3.680000      0.0000000E+00
   3.700000      0.0000000E+00
   3.720000      0.0000000E+00
   3.740000      0.0000000E+00
   3.760000      0.0000000E+00
   3.780000      0.0000000E+00
   3.800000      0.0000000E+00
   3.820000      0.0000000E+00
   3.840000      0.0000000E+00
   3.860000      0.0000000E+00
   3.880000      0.0000000E+00
   3.900000      0.0000000E+00
   3.920000      0.0000000E+00
   3.940000      0.0000000E+00
   3.960000      0.0000000E+00
   3.980000      0.0000000E+00
   4.000000      0.0000000E+00
   4.020000      0.0000000E+00
   4.040000      0.0000000E+00
   4.060000      0.0000000E+00
   4.080000      0.0000000E+00
   4.100000      0.0000000E+00
   4.120000      0.0000000E+00
   4.140000      0.0000000E+00
   4.160000      0.0000000E+00
   4.180000      0.0000000E+00
   4.200000      0.0000000E+00
   4.220000      0.0000000E+00
   4.240000      0.0000000E+00
   4.260000      0.0000000E+00
   4.280000      0.0000000E+00
   4.300000      0.0000000E+00
   4.320000      0.0000000E+00
   4.340000      0.0000000E+00
   4.360000      0.0000000E+00
   4.380000      0.0000000E+00
   4.400000      0.0000000E+00
   4.420000      0.0000000E+00
   4.440000      0.0000000E+00
   4.460000      0.0000000E+00
   4.480000      0.0000000E+00
   4.500000      0.0000000E+00
   4.520000      0.0000000E+00
   4.540000      0.0000000E+00
   4.560000      0.0000000E+00
   4.580000      0.0000000E+00
   4.600000      0.0000000E+00
   4.620000      0.0000000E+00
   4.640000      0.0000000E+00
   4.660000      0.0000000E+00
   4.680000      0.0000000E+00
   4.700000      0.0000000E+00
   4.720000      0.0000000E+00
   4.740000      0.0000000E+00
   4.760000      0.0000000E+00
   4.780000      0.0000000E+00
   4.800000      0.0000000E+00
   4.820000      0.0000000E+00
   4.840000      0.0000000E+00
   4.860000      0.0000000E+00
   4.880000      0.0000000E+00
   4.900000      0.0000000E+00
   4.920000      0.0000000E+00
   4.940000      0.0000000E+00
   4.960000      0.0000000E+00
   4.980000      0.0000000E+00
   5.000000      0.0000000E+00
   5.020000      0.0000000E+00
   5.040000      0.0000000E+00
   5.060000      0.0000000E+00
   5.080000      0.0000000E+00
   5.100000      0.0000000E+00
   5.120000      0.0000000E+00
   5.140000      0.0000000E+00
   5.160000      0.0000000E+00
   5.180000      0.0000000E+00
   5.200000      0.0000000E+00
   5.220000      0.0000000E+00
   5.240000      0.0000000E+00
   5.260000      0.0000000E+00
   5.280000      0.0000000E+00
   5.300000      0.0000000E+00
   5.320000      0.0000000E+00
   5.340000      0.0000000E+00
   5.360000      0.0000000E+00
   5.380000      0.0000000E+00
   5.400000      0.0000000E+00
   5.420000      0.0000000E+00
   5.440000      0.0000000E+00
   5.460000      0.0000000E+00
   5.480000      0.0000000E+00
   5.500000      0.0000000E+00
   5.520000      0.0000000E+00
   5.540000      0.0000000E+00
   5.560000      0.0000000E+00
   5.580000      0.0000000E+00
   5.600000      0.0000000E+00
   5.620000      0.0000000E+00
   5.640000      0.0000000E+00
   5.660000      0.0000000E+00
   5.680000      0.0000000E+00
   5.700000      0.0000000E+00
   5.720000      0.0000000E+00
   5.740000      0.0000000E+00
   5.760000      0.0000000E+00
   5.780000      0.0000000E+00
   5.800000      0.0000000E+00
   5.820000      0.0000000E+00
   5.840000      0.0000000E+00
   5.860000      0.0000000E+00
   5.880000      0.0000000E+00
   5.900000      0.0000000E+00
   5.920000      0.0000000E+00
   5.940000      0.0000000E+00
   5.960000      0.0000000E+00
   5.980000      0.0000000E+00
   6.000000      0.0000000E+00
   6.020000      0.0000000E+00
   6.040000      0.0000000E+00
   6.060000      0.0000000E+00
   6.080000      0.0000000E+00
   6.100000      0.0000000E+00
   6.120000      0.0000000E+00
   6.140000      0.0000000E+00
   6.160000      0.0000000E+00
   6.180000      0.0000000E+00
   6.200000      0.0000000E+00
   6.220000      3.2623901E-38
   6.240000      5.4180656E-38
   6.260000      0.0000000E+00
   6.280000     -1.5574232E-37
   6.300000     -2.2510306E-37
   6.320000      5.7660635E-38
   6.340000      6.1488030E-37
   6.360000      9.4215713E-37
   6.380000      3.2731599E-37
   6.400000     -1.2406985E-36
   6.420000     -2.5804779E-36
   6.440000     -1.8701192E-36
   6.460000      1.0870506E-36
   6.480000      3.3022764E-36
   6.500000      1.5094918E-36
   6.520000     -4.6123140E-36
   6.540000     -9.0255244E-36
   6.560000     -4.9646865E-36
   6.580000      8.5711008E-36
   6.600000      2.1137310E-35
   6.620000      1.5828585E-35
   6.640000     -1.1742175E-35
   6.660000     -4.2352040E-35
   6.680000     -4.2733085E-35
   6.700000      4.3064839E-36
   6.720000      7.2849317E-35
   6.740000      1.0124767E-34
   6.760000      4.0368686E-35
   6.780000     -8.9827215E-35
   6.800000     -1.8978638E-34
   6.820000     -1.4451168E-34
   6.840000      6.5953728E-35
   6.860000      3.0520873E-34
   6.880000      3.4592482E-34
   6.900000      5.6082227E-35
   6.920000     -4.2595039E-34
   6.940000     -7.0727952E-34
   6.960000     -4.1716136E-34
   6.980000      4.1608634E-34
   7.000000      1.2147680E-33
   7.020000      1.1782647E-33
   7.040000     -2.6721150E-35
   7.060000     -1.7341704E-33
   7.080000     -2.4956911E-33
   7.100000     -1.1594764E-33
   7.120000      1.8768837E-33
   7.140000      4.3909835E-33
   7.160000      3.7223660E-33
   7.180000     -8.2799958E-34
   7.200000     -6.4941853E-33
   7.220000     -8.2727744E-33
   7.240000     -2.8279775E-33
   7.260000      7.5963178E-33
   7.280000      1.5035372E-32
   7.300000      1.1118152E-32
   7.320000     -5.0522163E-33
   7.340000     -2.2989969E-32
   7.360000     -2.6256956E-32
   7.380000     -5.7948341E-33
   7.400000      2.8438823E-32
   7.420000      4.9350397E-32
   7.440000      3.1708578E-32
   7.460000     -2.3070418E-32
   7.480000     -7.7701381E-32
   7.500000     -8.0307570E-32
   7.520000     -7.9446403E-33
   7.540000      1.0029254E-31
   7.560000      1.5609179E-31
   7.580000      8.6372692E-32
   7.600000     -9.1716471E-32
   7.620000     -2.5218296E-31
   7.640000     -2.3723002E-31
   7.660000      6.2049799E-33
   7.680000      3.3657257E-31
   7.700000      4.7693690E-31
   7.720000      2.2393285E-31
   7.740000     -3.3368880E-31
   7.760000     -7.8868359E-31
   7.780000     -6.7767489E-31
   7.800000      1.0628085E-31
   7.820000      1.0816728E-30
   7.840000      1.4108068E-30
   7.860000      5.4999114E-31
   7.880000     -1.1363857E-30
   7.900000     -2.3838006E-30
   7.920000     -1.8761050E-30
   7.940000      5.5105562E-31
   7.960000      3.3429152E-30
   7.980000      4.0495058E-30
   8.000000      1.2735348E-30
   8.020000     -3.6631184E-30
   8.040000     -6.9769092E-30
   8.060000     -5.0450344E-30
   8.080000      2.1988867E-30
   8.100000      9.9591673E-30
   8.120000      1.1294746E-29
   8.140000      2.7523899E-30
   8.160000     -1.1258199E-29
   8.180000     -1.9801650E-29
   8.200000     -1.3197114E-29
   8.220000      7.6949147E-30
   8.240000      2.8675935E-29
   8.260000      3.0660230E-29
   8.280000      5.4385309E-30
   8.300000     -3.3188780E-29
   8.320000     -5.4616328E-29
   8.340000     -3.3672851E-29
   8.360000      2.4706973E-29
   8.380000      8.0018140E-29
   8.400000      8.1211970E-29
   8.420000      9.4817977E-30
   8.440000     -9.4201242E-29
   8.460000     -1.4670336E-28
   8.480000     -8.4159190E-29
   8.500000      7.4205262E-29
   8.520000      2.1673655E-28
   8.540000      2.1033989E-28
   8.560000      1.3361870E-29
   8.580000     -2.5800282E-28
   8.600000     -3.8418893E-28
   8.620000     -2.0666162E-28
   8.640000      2.1095281E-28
   8.660000      5.7055116E-28
   8.680000      5.3329563E-28
   8.700000      9.6952359E-30
   8.720000     -6.8373917E-28
   8.740000     -9.8216293E-28
   8.760000     -4.9967150E-28
   8.780000      5.7283382E-28
   8.800000      1.4625892E-27
   8.820000      1.3257796E-27
   8.840000     -2.4979706E-29
   8.860000     -1.7579813E-27
   8.880000     -2.4553047E-27
   8.900000     -1.1936015E-27
   8.920000      1.4932019E-27
   8.940000      3.6563210E-27
   8.960000      3.2370561E-27
   8.980000     -1.4992940E-28
   9.000000     -4.3902316E-27
   9.020000     -6.0065560E-27
   9.040000     -2.8236038E-27
   9.060000      3.7463282E-27
   9.080000      8.9165310E-27
   9.100000      7.7629937E-27
   9.120000     -4.9901827E-28
   9.140000     -1.0657921E-26
   9.160000     -1.4378028E-26
   9.180000     -6.6111081E-27
   9.200000      9.0766043E-27
   9.220000      2.1222765E-26
   9.240000      1.8279251E-26
   9.260000     -1.3494821E-27
   9.280000     -2.5186320E-26
   9.300000     -3.3689938E-26
   9.320000     -1.5317503E-26
   9.340000      2.1284188E-26
   9.360000      4.9336205E-26
   9.380000      4.2276187E-26
   9.400000     -3.1721721E-27
   9.420000     -5.7964094E-26
   9.440000     -7.7288592E-26
   9.460000     -3.5134490E-26
   9.480000      4.8310141E-26
   9.500000      1.1199471E-25
   9.520000      9.6000958E-26
   9.540000     -6.5477396E-27
   9.560000     -1.2988225E-25
   9.580000     -1.7349547E-25
   9.600000     -7.9636421E-26
   9.620000      1.0621444E-25
   9.640000      2.4821370E-25
   9.660000      2.1383584E-25
   9.680000     -1.1751279E-26
   9.700000     -2.8356828E-25
   9.720000     -3.8108071E-25
   9.740000     -1.7800067E-25
   9.760000      2.2659502E-25
   9.780000      5.3750177E-25
   9.800000      4.6724241E-25
   9.820000     -1.7027644E-26
   9.840000     -6.0385956E-25
   9.860000     -8.1955346E-25
   9.880000     -3.9209123E-25
   9.900000      4.6945280E-25
   9.920000      1.1379888E-24
   9.940000      1.0016249E-24
   9.960000     -1.3720835E-26
   9.980000     -1.2551877E-24
   10.00000     -1.7260186E-24
   10.02000     -8.4935668E-25
   10.04000      9.4628579E-25
   10.06000      2.3572241E-24
   10.08000      2.1051550E-24
   10.10000      2.2734070E-26
   10.12000     -2.5517649E-24
   10.14000     -3.5616774E-24
   10.16000     -1.8039521E-24
   10.18000      1.8643684E-24
   10.20000      4.7858594E-24
   10.22000      4.3382120E-24
   10.24000      1.4955248E-25
   10.26000     -5.0893271E-24
   10.28000     -7.2112694E-24
   10.30000     -3.7513377E-24
   10.32000      3.6079926E-24
   10.34000      9.5437962E-24
   10.36000      8.7704688E-24
   10.38000      4.8574031E-25
   10.40000     -9.9863543E-24
   10.42000     -1.4342757E-23
   10.44000     -7.6270220E-24
   10.46000      6.8974653E-24
   10.48000      1.8730344E-23
   10.50000      1.7398021E-23
   10.52000      1.2376258E-24
   10.54000     -1.9348141E-23
   10.56000     -2.8065513E-23
   10.58000     -1.5141803E-23
   10.60000      1.3124162E-23
   10.62000      3.6282162E-23
   10.64000      3.3908697E-23
   10.66000      2.7117644E-24
   10.68000     -3.7166819E-23
   10.70000     -5.4172732E-23
   10.72000     -2.9398647E-23
   10.74000      2.4994427E-23
   10.76000      6.9586556E-23
   10.78000      6.5109550E-23
   10.80000      5.3321250E-24
   10.82000     -7.1002013E-23
   10.84000     -1.0344819E-22
   10.86000     -5.6020762E-23
   10.88000      4.7759318E-23
   10.90000      1.3251576E-22
   10.92000      1.2359374E-22
   10.94000      9.6299879E-24
   10.96000     -1.3522248E-22
   10.98000     -1.9611896E-22
   11.00000     -1.0536560E-22
   11.02000      9.1557525E-23
   11.04000      2.5136335E-22
   11.06000      2.3313980E-22
   11.08000      1.6551129E-23
   11.10000     -2.5711638E-22
   11.12000     -3.7072600E-22
   11.14000     -1.9748450E-22
   11.16000      1.7521612E-22
   11.18000      4.7609995E-22
   11.20000      4.3976953E-22
   11.22000      2.9262549E-23
   11.24000     -4.8769416E-22
   11.26000     -7.0129785E-22
   11.28000     -3.7295107E-22
   11.30000      3.3193005E-22
   11.32000      9.0136615E-22
   11.34000      8.3412945E-22
   11.36000      5.8958120E-23
   11.38000     -9.2070665E-22
   11.40000     -1.3310200E-21
   11.42000     -7.1701211E-22
   11.44000      6.1615287E-22
   11.46000      1.7053746E-21
   11.48000      1.5978373E-21
   11.50000      1.4308884E-22
   11.52000     -1.7227922E-21
   11.54000     -2.5364486E-21
   11.56000     -1.4135622E-21
   11.58000      1.1047131E-21
   11.60000      3.2158957E-21
   11.62000      3.0944687E-21
   11.64000      3.9398124E-22
   11.66000     -3.1738520E-21
   11.68000     -4.8418064E-21
   11.70000     -2.8568157E-21
   11.72000      1.8768108E-21
   11.74000      6.0153749E-21
   11.76000      6.0407288E-21
   11.78000      1.1136163E-21
   11.80000     -5.7100148E-21
   11.82000     -9.2163713E-21
   11.84000     -5.8781833E-21
   11.86000      2.9291417E-21
   11.88000      1.1091012E-20
   11.90000      1.1819190E-20
   11.92000      3.0574603E-21
   11.94000     -9.9210476E-21
   11.96000     -1.7382441E-20
   11.98000     -1.2184038E-20
   12.00000      3.9208563E-21
   12.02000      1.9989931E-20
   12.04000      2.2996807E-20
   12.06000      7.9830466E-21
   12.08000     -1.6386262E-20
   12.10000     -3.2228769E-20
   12.12000     -2.5132064E-20
   12.14000      3.5640414E-21
   12.16000      3.4872516E-20
   12.18000      4.4119310E-20
   12.20000      1.9712522E-20
   12.22000     -2.5105644E-20
   12.24000     -5.8258266E-20
   12.26000     -5.1039810E-20
   12.28000     -1.7085343E-21
   12.30000      5.8162190E-20
   12.32000      8.2785825E-20
   12.34000      4.6076219E-20
   12.36000     -3.4000164E-20
   12.38000     -1.0174523E-19
   12.40000     -1.0117775E-19
   12.42000     -2.0396653E-20
   12.44000      9.1117602E-20
   12.46000      1.5074645E-19
   12.48000      1.0216421E-19
   12.50000     -3.5569413E-20
   12.52000     -1.6980620E-19
   12.54000     -1.9439228E-19
   12.56000     -7.0779842E-20
   12.58000      1.2999819E-19
   12.60000      2.6413529E-19
   12.62000      2.1517452E-19
   12.64000     -1.0238762E-20
   12.66000     -2.6659302E-19
   12.68000     -3.5947031E-19
   12.70000     -1.8873443E-19
   12.72000      1.5771797E-19
   12.74000      4.4075404E-19
   12.76000      4.3031143E-19
   12.78000      8.5169960E-20
   12.80000     -3.8388028E-19
   12.82000     -6.3535893E-19
   12.84000     -4.3915934E-19
   12.86000      1.2783959E-19
   12.88000      6.9081534E-19
   12.90000      8.1664709E-19
   12.92000      3.3698364E-19
   12.94000     -4.7984111E-19
   12.96000     -1.0638513E-18
   12.98000     -9.3081083E-19
   13.00000     -6.5813346E-20
   13.02000      9.9029908E-19
   13.04000      1.4643255E-18
   13.06000      9.0203001E-19
   13.08000     -4.3608398E-19
   13.10000     -1.6593483E-18
   13.12000     -1.8225359E-18
   13.14000     -6.3286699E-19
   13.16000      1.2259920E-18
   13.18000      2.4569634E-18
   13.20000      2.0318341E-18
   13.22000      7.9938597E-21
   13.24000     -2.3451127E-18
   13.26000     -3.3109329E-18
   13.28000     -1.9446944E-18
   13.30000      1.0980433E-18
   13.32000      3.8033028E-18
   13.34000      4.0938145E-18
   13.36000      1.3709300E-18
   13.38000     -2.8091105E-18
   13.40000     -5.5603548E-18
   13.42000     -4.6087005E-18
   13.44000     -7.7327803E-20
   13.46000      5.2327326E-18
   13.48000      7.5041544E-18
   13.50000      4.5731607E-18
   13.52000     -2.2124039E-18
   13.54000     -8.4427794E-18
   13.56000     -9.4249952E-18
   13.58000     -3.6002254E-18
   13.60000      5.8170410E-18
   13.62000      1.2456605E-17
   13.64000      1.0981707E-17
   13.66000      1.1745872E-18
   13.68000     -1.1092226E-17
   13.70000     -1.7196294E-17
   13.72000     -1.1649083E-17
   13.74000      3.3782313E-18
   13.76000      1.8409085E-17
   13.78000      2.2414499E-17
   13.80000      1.0630621E-17
   13.82000     -1.0929842E-17
   13.84000     -2.8098793E-17
   13.86000     -2.7559673E-17
   13.88000     -6.7231214E-18
   13.90000      2.2584052E-17
   13.92000      4.0336119E-17
   13.94000      3.1559263E-17
   13.96000     -1.8608989E-18
   13.98000     -3.9674325E-17
   14.00000     -5.4923598E-17
   14.02000     -3.2515017E-17
   14.04000      1.7668356E-17
   14.06000      6.3648908E-17
   14.08000      7.0923306E-17
   14.10000      2.7327171E-17
   14.12000     -4.4086288E-17
   14.14000     -9.5727031E-17
   14.16000     -8.6072940E-17
   14.18000     -1.1288511E-17
   14.20000      8.5201132E-17
   14.22000      1.3619488E-16
   14.24000      9.5940993E-17
   14.26000     -2.2280054E-17
   14.28000     -1.4530458E-16
   14.30000     -1.8325529E-16
   14.32000     -9.2854882E-17
   14.34000      8.2220065E-17
   14.36000      2.2792741E-16
   14.38000      2.3144821E-16
   14.40000      6.4786175E-17
   14.42000     -1.7930680E-16
   14.44000     -3.3427989E-16
   14.46000     -2.6977938E-16
   14.48000      5.4402453E-18
   14.50000      3.2520530E-16
   14.52000      4.6092812E-16
   14.54000      2.7975333E-16
   14.56000     -1.4013297E-16
   14.58000     -5.3011816E-16
   14.60000     -5.9649437E-16
   14.62000     -2.3349657E-16
   14.64000      3.6547087E-16
   14.66000      7.9872200E-16
   14.68000      7.1727290E-16
   14.70000      9.2181616E-17
   14.72000     -7.0869330E-16
   14.74000     -1.1243237E-15
   14.76000     -7.8206573E-16
   14.78000      1.9475687E-16
   14.80000      1.1934910E-15
   14.82000      1.4815992E-15
   14.84000      7.2721818E-16
   14.86000     -6.8849104E-16
   14.88000     -1.8330680E-15
   14.90000     -1.8185086E-15
   14.92000     -4.6348039E-16
   14.94000      1.4558721E-15
   14.96000      2.6197977E-15
   14.98000      2.0478019E-15
   15.00000     -1.2355505E-16
   15.02000     -2.5585869E-15
   15.04000     -3.5101649E-15
   15.06000     -2.0382613E-15
   15.08000      1.1681933E-15
   15.10000      4.0351176E-15
   15.12000      4.4046471E-15
   15.14000      1.6063184E-15
   15.16000     -2.8138860E-15
   15.18000     -5.8760327E-15
   15.20000     -5.1246582E-15
   15.22000     -5.1069173E-16
   15.24000      5.1959042E-15
   15.26000      7.9947916E-15
   15.28000      5.3917878E-15
   15.30000     -1.5441263E-15
   15.32000     -8.4145176E-15
   15.34000     -1.0196327E-14
   15.36000     -4.8162238E-15
   15.38000      4.8874500E-15
   15.40000      1.2493667E-14
   15.42000      1.2144002E-14
   15.44000      2.8997159E-15
   15.46000     -9.8383690E-15
   15.48000     -1.7320785E-14
   15.50000     -1.3324257E-14
   15.52000      9.4550233E-16
   15.54000      1.6637504E-14
   15.56000      2.2569371E-14
   15.58000      1.3011110E-14
   15.60000     -7.3629178E-15
   15.62000     -2.5361486E-14
   15.64000     -2.7615761E-14
   15.66000     -1.0240675E-14
   15.68000      1.7001195E-14
   15.70000      3.5830398E-14
   15.72000      3.1469602E-14
   15.74000      3.8157013E-15
   15.76000     -3.0436719E-14
   15.78000     -4.7513727E-14
   15.80000     -3.2737322E-14
   15.82000      7.6356319E-15
   15.84000      4.8050922E-14
   15.86000      5.9429837E-14
   15.88000      2.9627566E-14
   15.90000     -2.5529009E-14
   15.92000     -6.9843186E-14
   15.94000     -7.0023231E-14
   15.96000     -1.9988375E-14
   15.98000      5.1125869E-14
   16.00000      9.5177047E-14
   16.02000      7.7007662E-14
   16.04000      1.3503346E-15
   16.06000     -8.5306823E-14
   16.08000     -1.2250296E-13
   16.10000     -7.7205027E-14
   16.12000      2.9026227E-14
   16.14000      1.2836348E-13
   16.16000      1.4914612E-13
   16.18000      6.6488502E-14
   16.20000     -7.4008230E-14
   16.22000     -1.7976714E-13
   16.24000     -1.7118728E-13
   16.26000     -3.9922560E-14
   16.28000      1.3621637E-13
   16.30000      2.3777120E-13
   16.32000      1.8331066E-13
   16.34000     -7.9961875E-15
   16.36000     -2.1748759E-13
   16.38000     -2.9887947E-13
   16.40000     -1.7860068E-13
   16.42000      8.3094135E-14
   16.44000      3.1837106E-13
   16.46000      3.5748268E-13
   16.48000      1.4866954E-13
   16.50000     -1.9086183E-13
   16.52000     -4.3728671E-13
   16.54000     -4.0539504E-13
   16.56000     -8.4008409E-14
   16.58000      3.3525605E-13
   16.60000      5.6889319E-13
   16.62000      4.3040585E-13
   16.64000     -2.6818739E-14
   16.66000     -5.1880158E-13
   16.68000     -7.0375270E-13
   16.70000     -4.1577470E-13
   16.72000      1.9793219E-13
   16.74000      7.4411896E-13
   16.76000      8.3127553E-13
   16.78000      3.4480868E-13
   16.80000     -4.4060055E-13
   16.82000     -1.0090177E-12
   16.84000     -9.3744890E-13
   16.86000     -2.0287114E-13
   16.88000      7.5631201E-13
   16.90000      1.2951830E-12
   16.92000      9.9052439E-13