  -2.400000      0.0000000E+00
  -2.380000      0.0000000E+00
  -2.360000      0.0000000E+00
  -2.340000      0.0000000E+00
  -2.320000      0.0000000E+00
  -2.300000      0.0000000E+00
  -2.280000      0.0000000E+00
  -2.260000      0.0000000E+00
  -2.240000      0.0000000E+00
  -2.220000      0.0000000E+00
  -2.200000      0.0000000E+00
  -2.180000      0.0000000E+00
  -2.160000      0.0000000E+00
  -2.140000      0.0000000E+00
  -2.120000      0.0000000E+00
  -2.100000      0.0000000E+00
  -2.080000      0.0000000E+00
  -2.060000      5.8368664E-37
  -2.040000      9.1550024E-36
  -2.020000      5.1607055E-35
  -2.000000      4.3365843E-35
  -1.980000     -1.1757502E-33
  -1.960000     -7.8808058E-33
  -1.940000     -2.2440822E-32
  -1.920000     -3.2509424E-33
  -1.900000      2.3122689E-31
  -1.880000      9.5199469E-31
  -1.860000      1.6257773E-30
  -1.840000     -1.3808559E-30
  -1.820000     -1.5686892E-29
  -1.800000     -4.1991454E-29
  -1.780000     -4.0306045E-29
  -1.760000      1.0261165E-28
  -1.740000      4.9660460E-28
  -1.720000      9.1603353E-28
  -1.700000      3.2296935E-28
  -1.680000     -2.9380795E-27
  -1.660000     -8.8945045E-27
  -1.640000     -1.1562194E-26
  -1.620000      3.0860570E-27
  -1.600000      4.7107458E-26
  -1.580000      1.0251105E-25
  -1.560000      9.2007208E-26
  -1.540000     -9.9724819E-26
  -1.520000     -4.9823459E-25
  -1.500000     -8.3471463E-25
  -1.480000     -4.7166856E-25
  -1.460000      1.2124420E-24
  -1.440000      3.8597272E-24
  -1.420000      5.1656458E-24
  -1.400000      1.3082836E-24
  -1.380000     -9.8828147E-24
  -1.360000     -2.3687155E-23
  -1.340000     -2.5557004E-23
  -1.320000      2.6048860E-24
  -1.300000      6.3490946E-23
  -1.280000      1.2157999E-22
  -1.260000      1.0122893E-22
  -1.240000     -6.6297322E-23
  -1.220000     -3.4799479E-22
  -1.200000     -5.3084321E-22
  -1.180000     -2.8015904E-22
  -1.160000      5.7994262E-22
  -1.140000      1.6667451E-21
  -1.120000      1.8976190E-21
  -1.100000      8.2045630E-23
  -1.080000     -3.6972861E-21
  -1.060000     -6.8267822E-21
  -1.040000     -4.7837317E-21
  -1.020000      5.1528768E-21
  -1.000000      1.8621626E-20
 -0.9800000      2.2477108E-20
 -0.9600000      2.4974019E-21
 -0.9400000     -3.9881331E-20
 -0.9200000     -7.4139235E-20
 -0.9000000     -5.0727122E-20
 -0.8800000      5.5673191E-20
 -0.8600000      1.9269751E-19
 -0.8400000      2.2370712E-19
 -0.8200000      1.8364494E-20
 -0.8000000     -3.8499240E-19
 -0.7800000     -6.8098414E-19
 -0.7600000     -4.3620847E-19
 -0.7400000      5.0441598E-19
 -0.7200000      1.6120947E-18
 -0.7000000      1.7515831E-18
 -0.6800000      2.7380286E-20
 -0.6600000     -3.0051377E-18
 -0.6400000     -4.9004636E-18
 -0.6200000     -2.7294601E-18
 -0.6000000      3.9598807E-18
 -0.5800000      1.0914691E-17
 -0.5600000      1.0710671E-17
 -0.5400000     -1.1532232E-18
 -0.5200000     -1.9416143E-17
 -0.5000000     -2.8584153E-17
 -0.4800000     -1.3332907E-17
 -0.4600000      2.4946742E-17
 -0.4400000      5.9759299E-17
 -0.4200000      5.3049912E-17
 -0.4000000     -1.1382355E-17
 -0.3800000     -9.9105905E-17
 -0.3600000     -1.3368988E-16
 -0.3400000     -5.3218676E-17
 -0.3200000      1.1963455E-16
 -0.3000000      2.5929386E-16
 -0.2800000      2.1395694E-16
 -0.2600000     -5.6483419E-17
 -0.2400000     -3.9203472E-16
 -0.2200000     -5.0249986E-16
 -0.2000000     -1.9233217E-16
 -0.1800000      4.1655667E-16
 -0.1600000      8.7885894E-16
 -0.1400000      7.2115983E-16
 -0.1200000     -1.3430531E-16
 -0.1000000     -1.1673441E-15
 -7.9999998E-02 -1.5322218E-15
 -5.9999999E-02 -6.9932750E-16
 -3.9999999E-02  9.9759369E-16
 -2.0000000E-02  2.4038638E-15
  0.0000000E+00  2.2780000E-15
  2.0000000E-02  2.6603966E-16
  3.9999999E-02 -2.6055456E-15
  5.9999999E-02 -4.3752627E-15
  7.9999998E-02 -3.3591387E-15
  0.1000000      5.7979299E-16
  0.1200000      5.5130113E-15
  0.1400000      8.1404101E-15
  0.1600000      5.5945544E-15
  0.1800000     -2.3492671E-15
  0.2000000     -1.1911430E-14
  0.2200000     -1.6247073E-14
  0.2400000     -9.3611693E-15
  0.2600000      8.4246261E-15
  0.2800000      2.7350387E-14
  0.3000000      3.1779782E-14
  0.3200000      1.1090532E-14
  0.3400000     -2.8249526E-14
  0.3600000     -6.0239404E-14
  0.3800000     -5.3762350E-14
  0.4000000      1.6029948E-15
  0.4200000      7.7385940E-14
  0.4400000      1.1587099E-13
  0.4600000      7.0045173E-14
  0.4800000     -5.1007633E-14
  0.5000000     -1.7037016E-13
  0.5200000     -1.8723944E-13
  0.5400000     -5.5599785E-14
  0.5600000      1.6060540E-13
  0.5800000      3.0992456E-13
  0.6000000      2.5473054E-13
  0.6200000     -1.4061216E-14
  0.6400000     -3.3998488E-13
  0.6600000     -4.8729624E-13
  0.6800000     -3.0535942E-13
  0.7000000      1.4222298E-13
  0.7200000      5.8570981E-13
  0.7400000      7.0715780E-13
  0.7600000      3.5539746E-13
  0.7800000     -3.2169997E-13
  0.8000000     -9.2442991E-13
  0.8200000     -1.0208864E-12
  0.8400000     -4.2811870E-13
  0.8600000      6.0807376E-13
  0.8800000      1.4717421E-12
  0.9000000      1.5030838E-12
  0.9200000      4.5634969E-13
  0.9400000     -1.1937533E-12
  0.9600000     -2.3851398E-12
  0.9800000     -2.1017250E-12
   1.000000     -1.7990202E-13
   1.020000      2.3157711E-12
   1.040000      3.6060159E-12
   1.060000      2.4431774E-12
   1.080000     -7.5789066E-13
   1.100000     -3.9002317E-12
   1.120000     -4.5787406E-12
   1.140000     -1.9681038E-12
   1.160000      2.2975040E-12
   1.180000      5.1690661E-12
   1.200000      4.5076568E-12
   1.220000      8.1459248E-13
   1.240000     -3.1813389E-12
   1.260000     -4.8061477E-12
   1.280000     -3.5587540E-12
   1.300000     -1.0909318E-12
   1.320000      8.6001285E-13
   1.340000      2.3110405E-12
   1.360000      4.4254405E-12
   1.380000      6.8916769E-12
   1.400000      6.4837302E-12
   1.420000     -3.9951262E-13
   1.440000     -1.2504049E-11
   1.460000     -2.1246990E-11
   1.480000     -1.5746121E-11
   1.500000      6.5409392E-12
   1.520000      3.2770758E-11
   1.540000      4.0533688E-11
   1.560000      1.5864175E-11
   1.580000     -3.0167733E-11
   1.600000     -6.3304591E-11
   1.620000     -5.0689380E-11
   1.640000      8.4802469E-12
   1.660000      7.3630671E-11
   1.680000      8.9281520E-11
   1.700000      3.1544684E-11
   1.720000     -6.3716622E-11
   1.740000     -1.2096299E-10
   1.760000     -8.4734442E-11
   1.780000      2.7841522E-11
   1.800000      1.3081632E-10
   1.820000      1.3539193E-10
   1.840000      2.7908556E-11
   1.860000     -1.0921469E-10
   1.880000     -1.6041866E-10
   1.900000     -7.7115224E-11
   1.920000      7.2451656E-11
   1.940000      1.5571559E-10
   1.960000      9.3620008E-11
   1.980000     -5.9703138E-11
   2.000000     -1.5610957E-10
   2.020000     -8.8987297E-11
   2.040000      9.3765225E-11
   2.060000      2.1398433E-10
   2.080000      1.2289135E-10
   2.100000     -1.3927295E-10
   2.120000     -3.4278380E-10
   2.140000     -2.5853880E-10
   2.160000      1.1121383E-10
   2.180000      4.8012638E-10
   2.200000      4.9116955E-10
   2.220000      4.4697076E-11
   2.240000     -5.4953930E-10
   2.260000     -7.7541229E-10
   2.280000     -3.4645495E-10
   2.300000      4.8700788E-10
   2.320000      1.0656160E-09
   2.340000      8.4097102E-10
   2.360000     -1.2049399E-10
   2.380000     -1.1067713E-09
   2.400000     -1.2986905E-09
   2.420000     -4.7314314E-10
   2.440000      7.3636885E-10
   2.460000      1.3095838E-09
   2.480000      7.0574308E-10
   2.500000     -6.0550009E-10
   2.520000     -1.4641571E-09
   2.540000     -9.9656772E-10
   2.560000      5.6356075E-10
   2.580000      1.9725550E-09
   2.600000      2.0029405E-09
   2.620000      5.5768246E-10
   2.640000     -1.1467635E-09
   2.660000     -1.6050110E-09
   2.680000     -4.3722836E-10
   2.700000      1.0988542E-09
   2.720000      1.1190904E-09
   2.740000     -1.0850469E-09
   2.760000     -4.0545833E-09
   2.780000     -5.0811209E-09
   2.800000     -2.5177331E-09
   2.820000      2.4385662E-09
   2.840000      6.2668790E-09
   2.860000      5.9016085E-09
   2.880000      1.6351888E-09
   2.900000     -2.4905955E-09
   2.920000     -1.6315327E-09
   2.940000      5.6033946E-09
   2.960000      1.5127100E-08
   2.980000      1.9729272E-08
   3.000000      1.4461746E-08
   3.020000      8.6615326E-10
   3.040000     -1.3748537E-08
   3.060000     -2.2042817E-08
   3.080000     -2.3186876E-08
   3.100000     -2.4782238E-08
   3.120000     -3.8004345E-08
   3.140000     -6.9275281E-08
   3.160000     -1.1504933E-07
   3.180000     -1.6436744E-07
   3.200000     -2.0781802E-07
   3.220000     -2.4611248E-07
   3.240000     -2.9125616E-07
   3.260000     -3.5889647E-07
   3.280000     -4.5762454E-07
   3.300000     -5.8388929E-07
   3.320000     -7.2704267E-07
   3.340000     -8.8088569E-07
   3.360000     -1.0525218E-06
   3.380000     -1.2611737E-06
   3.400000     -1.5277279E-06
   3.420000     -1.8636086E-06
   3.440000     -2.2684706E-06
   3.460000     -2.7390363E-06
   3.480000     -3.2819285E-06
   3.500000     -3.9196170E-06
   3.520000     -4.6841715E-06
   3.540000     -5.6040676E-06
   3.560000     -6.6958246E-06
   3.580000     -7.9687452E-06
   3.600000     -9.4398183E-06
   3.620000     -1.1146345E-05
   3.640000     -1.3144678E-05
   3.660000     -1.5494898E-05
   3.680000     -1.8244011E-05
   3.700000     -2.1423160E-05
   3.720000     -2.5063613E-05
   3.740000     -2.9220057E-05
   3.760000     -3.3981778E-05
   3.780000     -3.9460505E-05
   3.800000     -4.5762739E-05
   3.820000     -5.2969030E-05
   3.840000     -6.1139101E-05
   3.860000     -7.0341935E-05
   3.880000     -8.0688224E-05
   3.900000     -9.2338021E-05
   3.920000     -1.0547440E-04
   3.940000     -1.2026131E-04
   3.960000     -1.3681858E-04
   3.980000     -1.5523570E-04
   4.000000     -1.7561553E-04
   4.020000     -1.9811354E-04
   4.040000     -2.2293963E-04
   4.060000     -2.5031727E-04
   4.080000     -2.8042999E-04
   4.100000     -3.1339584E-04
   4.120000     -3.4929041E-04
   4.140000     -3.8819885E-04
   4.160000     -4.3025333E-04
   4.180000     -4.7562193E-04
   4.200000     -5.2445353E-04
   4.220000     -5.7682005E-04
   4.240000     -6.3270063E-04
   4.260000     -6.9201784E-04
   4.280000     -7.5469405E-04
   4.300000     -8.2067639E-04
   4.320000     -8.8990357E-04
   4.340000     -9.6223853E-04
   4.360000     -1.0374183E-03
   4.380000     -1.1150627E-03
   4.400000     -1.1947342E-03
   4.420000     -1.2759964E-03
   4.440000     -1.3584144E-03
   4.460000     -1.4414927E-03
   4.480000     -1.5245952E-03
   4.500000     -1.6069175E-03
   4.520000     -1.6875389E-03
   4.540000     -1.7655191E-03
   4.560000     -1.8399612E-03
   4.580000     -1.9099859E-03
   4.600000     -1.9746348E-03
   4.620000     -2.0327803E-03
   4.640000     -2.0831295E-03
   4.660000     -2.1243296E-03
   4.680000     -2.1551095E-03
   4.700000     -2.1743518E-03
   4.720000     -2.1810397E-03
   4.740000     -2.1741264E-03
   4.760000     -2.1524401E-03
   4.780000     -2.1147162E-03
   4.800000     -2.0597526E-03
   4.820000     -1.9865856E-03
   4.840000     -1.8945594E-03
   4.860000     -1.7832436E-03
   4.880000     -1.6522768E-03
   4.900000     -1.5012695E-03
   4.920000     -1.3298609E-03
   4.940000     -1.1378991E-03
   4.960000     -9.2561479E-04
   4.980000     -6.9365738E-04
   5.000000     -4.4297299E-04
   5.020000     -1.7462863E-04
   5.040000      1.1027150E-04
   5.060000      4.1050802E-04
   5.080000      7.2457106E-04
   5.100000      1.0505377E-03
   5.120000      1.3861108E-03
   5.140000      1.7287961E-03
   5.160000      2.0760812E-03
   5.180000      2.4254811E-03
   5.200000      2.7744209E-03
   5.220000      3.1200799E-03
   5.240000      3.4593518E-03
   5.260000      3.7889883E-03
   5.280000      4.1058417E-03
   5.300000      4.4070245E-03
   5.320000      4.6898765E-03
   5.340000      4.9517765E-03
   5.360000      5.1899883E-03
   5.380000      5.4017007E-03
   5.400000      5.5842791E-03
   5.420000      5.7355543E-03
   5.440000      5.8539421E-03
   5.460000      5.9382920E-03
   5.480000      5.9876004E-03
   5.500000      6.0008280E-03
   5.520000      5.9769959E-03
   5.540000      5.9155119E-03
   5.560000      5.8164890E-03
   5.580000      5.6807934E-03
   5.600000      5.5097770E-03
   5.620000      5.3048823E-03
   5.640000      5.0674286E-03
   5.660000      4.7987374E-03
   5.680000      4.5005064E-03
   5.700000      4.1751130E-03
   5.720000      3.8255982E-03
   5.740000      3.4553108E-03
   5.760000      3.0674641E-03
   5.780000      2.6649241E-03
   5.800000      2.2503689E-03
   5.820000      1.8266635E-03
   5.840000      1.3971240E-03
   5.860000      9.6543913E-04
   5.880000      5.3528463E-04
   5.900000      1.0991550E-04
   5.920000     -3.0796550E-04
   5.940000     -7.1599043E-04
   5.960000     -1.1117664E-03
   5.980000     -1.4926906E-03
   6.000000     -1.8561055E-03
   6.020000     -2.1996761E-03
   6.040000     -2.5216851E-03
   6.060000     -2.8210094E-03
   6.080000     -3.0968070E-03
   6.100000     -3.3481866E-03
   6.120000     -3.5741436E-03
   6.140000     -3.7738243E-03
   6.160000     -3.9468920E-03
   6.180000     -4.0936726E-03
   6.200000     -4.2149406E-03
   6.220000     -4.3114908E-03
   6.240000     -4.3838508E-03
   6.260000     -4.4323732E-03
   6.280000     -4.4576353E-03
   6.300000     -4.4608139E-03
   6.320000     -4.4436948E-03
   6.340000     -4.4082738E-03
   6.360000     -4.3562343E-03
   6.380000     -4.2887121E-03
   6.400000     -4.2065405E-03
   6.420000     -4.1107801E-03
   6.440000     -4.0031066E-03
   6.460000     -3.8857216E-03
   6.480000     -3.7608298E-03
   6.500000     -3.6300770E-03
   6.520000     -3.4943863E-03
   6.540000     -3.3543194E-03
   6.560000     -3.2106754E-03
   6.580000     -3.0648508E-03
   6.600000     -2.9186727E-03
   6.620000     -2.7738272E-03
   6.640000     -2.6313390E-03
   6.660000     -2.4915056E-03
   6.680000     -2.3543327E-03
   6.700000     -2.2201196E-03
   6.720000     -2.0897300E-03
   6.740000     -1.9643400E-03
   6.760000     -1.8448817E-03
   6.780000     -1.7316350E-03
   6.800000     -1.6242911E-03
   6.820000     -1.5224295E-03
   6.840000     -1.4260138E-03
   6.860000     -1.3355087E-03
   6.880000     -1.2515382E-03
   6.900000     -1.1743832E-03
   6.920000     -1.1037400E-03
   6.940000     -1.0389385E-03
   6.960000     -9.7943633E-04
   6.980000     -9.2517317E-04
   7.000000     -8.7649265E-04
   7.020000     -8.3370256E-04
   7.040000     -7.9664937E-04
   7.060000     -7.6467206E-04
   7.080000     -7.3698477E-04
   7.100000     -7.1317516E-04
   7.120000     -6.9339934E-04
   7.140000     -6.7810423E-04
   7.160000     -6.6749658E-04
   7.180000     -6.6120015E-04
   7.200000     -6.5839215E-04
   7.220000     -6.5832306E-04
   7.240000     -6.6080102E-04
   7.260000     -6.6624547E-04
   7.280000     -6.7525596E-04
   7.300000     -6.8803999E-04
   7.320000     -7.0416008E-04
   7.340000     -7.2280824E-04
   7.360000     -7.4338994E-04
   7.380000     -7.6595007E-04
   7.400000     -7.9110125E-04
   7.420000     -8.1951491E-04
   7.440000     -8.5138780E-04
   7.460000     -8.8631146E-04
   7.480000     -9.2364522E-04
   7.500000     -9.6308714E-04
   7.520000     -1.0049837E-03
   7.540000     -1.0501381E-03
   7.560000     -1.0992844E-03
   7.580000     -1.1526576E-03
   7.600000     -1.2100078E-03
   7.620000     -1.2710326E-03
   7.640000     -1.3358709E-03
   7.660000     -1.4052604E-03
   7.680000     -1.4802411E-03
   7.700000     -1.5616688E-03
   7.720000     -1.6499413E-03
   7.740000     -1.7451592E-03
   7.760000     -1.8475815E-03
   7.780000     -1.9579912E-03
   7.800000     -2.0776750E-03
   7.820000     -2.2080413E-03
   7.840000     -2.3502081E-03
   7.860000     -2.5049034E-03
   7.880000     -2.6727663E-03
   7.900000     -2.8547943E-03
   7.920000     -3.0525636E-03
   7.940000     -3.2680444E-03
   7.960000     -3.5031647E-03
   7.980000     -3.7594913E-03
   8.000000     -4.0382850E-03
   8.020000     -4.3408861E-03
   8.040000     -4.6690940E-03
   8.060000     -5.0252280E-03
   8.080000     -5.4118107E-03
   8.100000     -5.8311317E-03
   8.120000     -6.2850546E-03
   8.140000     -6.7752004E-03
   8.160000     -7.3033487E-03
   8.180000     -7.8716883E-03
   8.200000     -8.4827002E-03
   8.220000     -9.1387304E-03
   8.240000     -9.8415995E-03
   8.260000     -1.0592532E-02
   8.280000     -1.1392445E-02
   8.300000     -1.2242300E-02
   8.320000     -1.3143205E-02
   8.340000     -1.4096132E-02
   8.360000     -1.5101415E-02
   8.380000     -1.6158428E-02
   8.400000     -1.7265612E-02
   8.420000     -1.8420782E-02
   8.440000     -1.9621402E-02
   8.460000     -2.0864513E-02
   8.480000     -2.2146309E-02
   8.500000     -2.3461645E-02
   8.520000     -2.4803795E-02
   8.540000     -2.6164547E-02
   8.560000     -2.7534520E-02
   8.580000     -2.8903261E-02
   8.600000     -3.0259036E-02
   8.620000     -3.1588331E-02
   8.640000     -3.2875422E-02
   8.660000     -3.4102298E-02
   8.680000     -3.5248842E-02
   8.700000     -3.6293171E-02
   8.720000     -3.7211683E-02
   8.740000     -3.7978787E-02
   8.760000     -3.8566563E-02
   8.780000     -3.8944583E-02
   8.800000     -3.9080143E-02
   8.820000     -3.8938686E-02
   8.840000     -3.8484294E-02
   8.860000     -3.7679844E-02
   8.880000     -3.6487017E-02
   8.900000     -3.4866329E-02
   8.920000     -3.2777552E-02
   8.940000     -3.0180451E-02
   8.960000     -2.7035709E-02
   8.980000     -2.3305710E-02
   9.000000     -1.8955013E-02
   9.020000     -1.3950765E-02
   9.040000     -8.2632592E-03
   9.060000     -1.8668860E-03
   9.080000      5.2586216E-03
   9.100000      1.3126940E-02
   9.120000      2.1744218E-02
   9.140000      3.1108467E-02
   9.160000      4.1209079E-02
   9.180000      5.2026164E-02
   9.200000      6.3529611E-02
   9.220000      7.5678051E-02
   9.240000      8.8418067E-02
   9.260000      0.1016839    
   9.280000      0.1153973    
   9.300000      0.1294684    
   9.320000      0.1437950    
   9.340000      0.1582634    
   9.360000      0.1727485    
   9.380000      0.1871140    
   9.400000      0.2012140    
   9.420000      0.2148945    
   9.440000      0.2279948    
   9.460000      0.2403496    
   9.480000      0.2517900    
   9.500000      0.2621462    
   9.520000      0.2712489    
   9.540000      0.2789322    
   9.560000      0.2850364    
   9.580000      0.2894104    
   9.600000      0.2919139    
   9.620000      0.2924201    
   9.640000      0.2908176    
   9.660000      0.2870131    
   9.680000      0.2809333    
   9.700000      0.2725277    
   9.720000      0.2617697    
   9.740000      0.2486576    
   9.760000      0.2332156    
   9.780000      0.2154947    
   9.800000      0.1955730    
   9.820000      0.1735558    
   9.840000      0.1495756    
   9.860000      0.1237906    
   9.880000      9.6383363E-02
   9.900000      6.7558534E-02
   9.920000      3.7541285E-02
   9.940000      6.5749683E-03
   9.960000     -2.5081418E-02
   9.980000     -5.7156317E-02
   10.00000     -8.9369118E-02
   10.02000     -0.1214338    
   10.04000     -0.1530626    
   10.06000     -0.1839693    
   10.08000     -0.2138729    
   10.10000     -0.2425009    
   10.12000     -0.2695932    
   10.14000     -0.2949053    
   10.16000     -0.3182120    
   10.18000     -0.3393094    
   10.20000     -0.3580180    
   10.22000     -0.3741841    
   10.24000     -0.3876823    
   10.26000     -0.3984162    
   10.28000     -0.4063204    
   10.30000     -0.4113601    
   10.32000     -0.4135315    
   10.34000     -0.4128609    
   10.36000     -0.4094038    
   10.38000     -0.4032443    
   10.40000     -0.3944932    
   10.42000     -0.3832864    
   10.44000     -0.3697821    
   10.46000     -0.3541586    
   10.48000     -0.3366110    
   10.50000     -0.3173483    
   10.52000     -0.2965909    
   10.54000     -0.2745674    
   10.56000     -0.2515119    
   10.58000     -0.2276602    
   10.60000     -0.2032471    
   10.62000     -0.1785033    
   10.64000     -0.1536527    
   10.66000     -0.1289104    
   10.68000     -0.1044805    
   10.70000     -8.0554217E-02
   10.72000     -5.7307772E-02
   10.74000     -3.4901004E-02
   10.76000     -1.3476221E-02
   10.78000      6.8424270E-03
   10.80000      2.5949122E-02
   10.82000      4.3756466E-02
   10.84000      6.0195535E-02
   10.86000      7.5215809E-02
   10.88000      8.8784859E-02
   10.90000      0.1008874    
   10.92000      0.1115242    
   10.94000      0.1207103    
   10.96000      0.1284738    
   10.98000      0.1348550    
   11.00000      0.1399052    
   11.02000      0.1436854    
   11.04000      0.1462646    
   11.06000      0.1477181    
   11.08000      0.1481258    
   11.10000      0.1475707    
   11.12000      0.1461382    
   11.14000      0.1439151    
   11.16000      0.1409885    
   11.18000      0.1374449    
   11.20000      0.1333683    
   11.22000      0.1288398    
   11.24000      0.1239373    
   11.26000      0.1187344    
   11.28000      0.1133012    
   11.30000      0.1077031    
   11.32000      0.1020006    
   11.34000      9.6249253E-02
   11.36000      9.0499163E-02
   11.38000      8.4795251E-02
   11.40000      7.9177469E-02
   11.42000      7.3680922E-02
   11.44000      6.8336055E-02
   11.46000      6.3168764E-02
   11.48000      5.8200467E-02
   11.50000      5.3448305E-02
   11.52000      4.8925422E-02
   11.54000      4.4641349E-02
   11.56000      4.0602405E-02
   11.58000      3.6811970E-02
   11.60000      3.3270702E-02
   11.62000      2.9976653E-02
   11.64000      2.6925499E-02
   11.66000      2.4110911E-02
   11.68000      2.1524983E-02
   11.70000      1.9158617E-02
   11.72000      1.7001700E-02
   11.74000      1.5043155E-02
   11.76000      1.3271016E-02
   11.78000      1.1672678E-02
   11.80000      1.0235325E-02
   11.82000      8.9463377E-03
   11.84000      7.7935010E-03
   11.86000      6.7649703E-03
   11.88000      5.8491756E-03
   11.90000      5.0348598E-03
   11.92000      4.3113087E-03
   11.94000      3.6686624E-03
   11.96000      3.0980832E-03
   11.98000      2.5916991E-03
   12.00000      2.1424268E-03
   12.02000      1.7438409E-03
   12.04000      1.3902092E-03
   12.06000      1.0766078E-03
   12.08000      7.9898175E-04
   12.10000      5.5405044E-04
   12.12000      3.3910875E-04
   12.14000      1.5184689E-04
   12.16000     -9.7321754E-06
   12.18000     -1.4732443E-04
   12.20000     -2.6235374E-04
   12.22000     -3.5605993E-04
   12.24000     -4.2961317E-04
   12.26000     -4.8418689E-04
   12.28000     -5.2097259E-04
   12.30000     -5.4118765E-04
   12.32000     -5.4613227E-04
   12.34000     -5.3728279E-04
   12.36000     -5.1634084E-04
   12.38000     -4.8517290E-04
   12.40000     -4.4566474E-04
   12.42000     -3.9960281E-04
   12.44000     -3.4867926E-04
   12.46000     -2.9460574E-04
   12.48000     -2.3921316E-04
   12.50000     -1.8441149E-04
   12.52000     -1.3199840E-04
   12.54000     -8.3438004E-05
   12.56000     -3.9763458E-05
   12.58000     -1.6602924E-06
   12.60000      3.0357429E-05
   12.62000      5.5833389E-05
   12.64000      7.4410105E-05
   12.66000      8.5983775E-05
   12.68000      9.0837493E-05
   12.70000      8.9635607E-05
   12.72000      8.3269028E-05
   12.74000      7.2647606E-05
   12.76000      5.8563979E-05
   12.78000      4.1694733E-05
   12.80000      2.2708176E-05
   12.82000      2.3800371E-06
   12.84000     -1.8384762E-05
   12.86000     -3.8665010E-05
   12.88000     -5.7723788E-05
   12.90000     -7.5182805E-05
   12.92000     -9.1056827E-05
   12.94000     -1.0561467E-04
   12.96000     -1.1915166E-04
   12.98000     -1.3183439E-04
   13.00000     -1.4373763E-04
   13.02000     -1.5504780E-04
   13.04000     -1.6625940E-04
   13.06000     -1.7817246E-04
   13.08000     -1.9164462E-04
   13.10000     -2.0725901E-04
   13.12000     -2.2515941E-04
   13.14000     -2.4518179E-04
   13.16000     -2.6716388E-04
   13.18000     -2.9115233E-04
   13.20000     -3.1730428E-04
   13.22000     -3.4554707E-04
   13.24000     -3.7528566E-04
   13.26000     -4.0542378E-04
   13.28000     -4.3470148E-04
   13.30000     -4.6207252E-04
   13.32000     -4.8680755E-04
   13.34000     -5.0825538E-04
   13.36000     -5.2550598E-04
   13.38000     -5.3729716E-04
   13.40000     -5.4229045E-04
   13.42000     -5.3950935E-04
   13.44000     -5.2858086E-04
   13.46000     -5.0959340E-04
   13.48000     -4.8272518E-04
   13.50000     -4.4799410E-04
   13.52000     -4.0536086E-04
   13.54000     -3.5508833E-04
   13.56000     -2.9802750E-04
   13.58000     -2.3557009E-04
   13.60000     -1.6930573E-04
   13.62000     -1.0067486E-04
   13.64000     -3.0889452E-05
   13.66000      3.8863342E-05
   13.68000      1.0716964E-04
   13.70000      1.7234651E-04
   13.72000      2.3265886E-04
   13.74000      2.8661653E-04
   13.76000      3.3312759E-04
   13.78000      3.7144145E-04
   13.80000      4.0100396E-04
   13.82000      4.2139314E-04
   13.84000      4.3238301E-04
   13.86000      4.3404085E-04
   13.88000      4.2674041E-04
   13.90000      4.1107801E-04
   13.92000      3.8778645E-04
   13.94000      3.5773375E-04
   13.96000      3.2198624E-04
   13.98000      2.8182930E-04
   14.00000      2.3867184E-04
   14.02000      1.9388026E-04
   14.04000      1.4866744E-04
   14.06000      1.0411419E-04
   14.08000      6.1269791E-05
   14.10000      2.1196427E-05
   14.12000     -1.5124408E-05
   14.14000     -4.6965422E-05
   14.16000     -7.3961062E-05
   14.18000     -9.6053198E-05
   14.20000     -1.1332265E-04
   14.22000     -1.2585525E-04
   14.24000     -1.3375559E-04
   14.26000     -1.3728515E-04
   14.28000     -1.3698905E-04
   14.30000     -1.3368427E-04
   14.32000     -1.2829842E-04
   14.34000     -1.2166653E-04
   14.36000     -1.1441833E-04
   14.38000     -1.0701148E-04
   14.40000     -9.9857956E-05
   14.42000     -9.3433446E-05
   14.44000     -8.8283610E-05
   14.46000     -8.4917679E-05
   14.48000     -8.3654726E-05
   14.50000     -8.4518389E-05
   14.52000     -8.7248729E-05
   14.54000     -9.1428941E-05
   14.56000     -9.6649303E-05
   14.58000     -1.0260104E-04
   14.60000     -1.0903792E-04
   14.62000     -1.1564206E-04
   14.64000     -1.2191087E-04
   14.66000     -1.2717443E-04
   14.68000     -1.3075249E-04
   14.70000     -1.3214533E-04
   14.72000     -1.3111980E-04
   14.74000     -1.2763574E-04
   14.76000     -1.2168679E-04
   14.78000     -1.1319424E-04
   14.80000     -1.0203825E-04
   14.82000     -8.8189961E-05
   14.84000     -7.1828326E-05
   14.86000     -5.3349915E-05
   14.88000     -3.3275512E-05
   14.90000     -1.2133175E-05
   14.92000      9.6055910E-06
   14.94000      3.1521162E-05
   14.96000      5.3210941E-05
   14.98000      7.4267562E-05
   15.00000      9.4284616E-05
   15.02000      1.1288238E-04
   15.04000      1.2974537E-04
   15.06000      1.4466554E-04
   15.08000      1.5757231E-04
   15.10000      1.6852036E-04
   15.12000      1.7762635E-04
   15.14000      1.8499541E-04
   15.16000      1.9070500E-04
   15.18000      1.9487597E-04
   15.20000      1.9777377E-04
   15.22000      1.9983147E-04
   15.24000      2.0153706E-04
   15.26000      2.0324923E-04
   15.28000      2.0508820E-04
   15.30000      2.0699685E-04
   15.32000      2.0891779E-04
   15.34000      2.1091908E-04
   15.36000      2.1314211E-04
   15.38000      2.1561093E-04
   15.40000      2.1807900E-04
   15.42000      2.2005984E-04
   15.44000      2.2101727E-04
   15.46000      2.2053992E-04
   15.48000      2.1834359E-04
   15.50000      2.1411653E-04
   15.52000      2.0738007E-04
   15.54000      1.9752351E-04
   15.56000      1.8400096E-04
   15.58000      1.6651802E-04
   15.60000      1.4504617E-04
   15.62000      1.1967227E-04
   15.64000      9.0447851E-05
   15.66000      5.7394522E-05
   15.68000      2.0657702E-05
   15.70000     -1.9349163E-05
   15.72000     -6.1953353E-05
   15.74000     -1.0636797E-04
   15.76000     -1.5182016E-04
   15.78000     -1.9753707E-04
   15.80000     -2.4262663E-04
   15.82000     -2.8601356E-04
   15.84000     -3.2654044E-04
   15.86000     -3.6316778E-04
   15.88000     -3.9508933E-04
   15.90000     -4.2165161E-04
   15.92000     -4.4216632E-04
   15.94000     -4.5582707E-04
   15.96000     -4.6185331E-04
   15.98000     -4.5975833E-04
   16.00000     -4.4950136E-04
   16.02000     -4.3137607E-04
   16.04000     -4.0573694E-04
   16.06000     -3.7282289E-04
   16.08000     -3.3284782E-04
   16.10000     -2.8626868E-04
   16.12000     -2.3396396E-04
   16.14000     -1.7713656E-04
   16.16000     -1.1701732E-04
   16.18000     -5.4634562E-05
   16.20000      9.1549537E-06
   16.22000      7.3436655E-05
   16.24000      1.3706359E-04
   16.26000      1.9872551E-04
   16.28000      2.5720114E-04
   16.30000      3.1155333E-04
   16.32000      3.6109661E-04
   16.34000      4.0520850E-04
   16.36000      4.4321574E-04
   16.38000      4.7449401E-04
   16.40000      4.9867504E-04
   16.42000      5.1571976E-04
   16.44000      5.2574713E-04
   16.46000      5.2877917E-04
   16.48000      5.2468141E-04
   16.50000      5.1339593E-04
   16.52000      4.9525331E-04
   16.54000      4.7102431E-04
   16.56000      4.4160156E-04
   16.58000      4.0757575E-04
   16.60000      3.6911646E-04
   16.62000      3.2630688E-04
   16.64000      2.7963574E-04
   16.66000      2.3015897E-04
   16.68000      1.7912290E-04
   16.70000      1.2735656E-04
   16.72000      7.4996540E-05
   16.74000      2.1834048E-05
   16.76000     -3.2002306E-05
   16.78000     -8.5653359E-05
   16.80000     -1.3781113E-04
   16.82000     -1.8744268E-04
   16.84000     -2.3429884E-04
   16.86000     -2.7872983E-04
   16.88000     -3.2096173E-04
   16.90000     -3.6049052E-04
   16.92000     -3.9615080E-04