  -2.400000      0.0000000E+00
  -2.380000      0.0000000E+00
  -2.360000      0.0000000E+00
  -2.340000      0.0000000E+00
  -2.320000      0.0000000E+00
  -2.300000      0.0000000E+00
  -2.280000      0.0000000E+00
  -2.260000      0.0000000E+00
  -2.240000      0.0000000E+00
  -2.220000      0.0000000E+00
  -2.200000      0.0000000E+00
  -2.180000      0.0000000E+00
  -2.160000      0.0000000E+00
  -2.140000      0.0000000E+00
  -2.120000      0.0000000E+00
  -2.100000      0.0000000E+00
  -2.080000      0.0000000E+00
  -2.060000      0.0000000E+00
  -2.040000      0.0000000E+00
  -2.020000      0.0000000E+00
  -2.000000      0.0000000E+00
  -1.980000      0.0000000E+00
  -1.960000      0.0000000E+00
  -1.940000      0.0000000E+00
  -1.920000      0.0000000E+00
  -1.900000      0.0000000E+00
  -1.880000      0.0000000E+00
  -1.860000      0.0000000E+00
  -1.840000      0.0000000E+00
  -1.820000      0.0000000E+00
  -1.800000      0.0000000E+00
  -1.780000      0.0000000E+00
  -1.760000      0.0000000E+00
  -1.740000      0.0000000E+00
  -1.720000      0.0000000E+00
  -1.700000      0.0000000E+00
  -1.680000      0.0000000E+00
  -1.660000      0.0000000E+00
  -1.640000      0.0000000E+00
  -1.620000      0.0000000E+00
  -1.600000      0.0000000E+00
  -1.580000      0.0000000E+00
  -1.560000      0.0000000E+00
  -1.540000      0.0000000E+00
  -1.520000      0.0000000E+00
  -1.500000      0.0000000E+00
  -1.480000      0.0000000E+00
  -1.460000      0.0000000E+00
  -1.440000      0.0000000E+00
  -1.420000      0.0000000E+00
  -1.400000      0.0000000E+00
  -1.380000      0.0000000E+00
  -1.360000      0.0000000E+00
  -1.340000      0.0000000E+00
  -1.320000      0.0000000E+00
  -1.300000      0.0000000E+00
  -1.280000      0.0000000E+00
  -1.260000      0.0000000E+00
  -1.240000      0.0000000E+00
  -1.220000      0.0000000E+00
  -1.200000      0.0000000E+00
  -1.180000      0.0000000E+00
  -1.160000      0.0000000E+00
  -1.140000      0.0000000E+00
  -1.120000      0.0000000E+00
  -1.100000      0.0000000E+00
  -1.080000      0.0000000E+00
  -1.060000      0.0000000E+00
  -1.040000      0.0000000E+00
  -1.020000      0.0000000E+00
  -1.000000      0.0000000E+00
 -0.9800000      0.0000000E+00
 -0.9600000      0.0000000E+00
 -0.9400000      0.0000000E+00
 -0.9200000      0.0000000E+00
 -0.9000000      0.0000000E+00
 -0.8800000      0.0000000E+00
 -0.8600000      0.0000000E+00
 -0.8400000      0.0000000E+00
 -0.8200000      0.0000000E+00
 -0.8000000      0.0000000E+00
 -0.7800000      0.0000000E+00
 -0.7600000      0.0000000E+00
 -0.7400000      0.0000000E+00
 -0.7200000      0.0000000E+00
 -0.7000000      0.0000000E+00
 -0.6800000      0.0000000E+00
 -0.6600000      0.0000000E+00
 -0.6400000      0.0000000E+00
 -0.6200000      0.0000000E+00
 -0.6000000      0.0000000E+00
 -0.5800000      0.0000000E+00
 -0.5600000      0.0000000E+00
 -0.5400000      0.0000000E+00
 -0.5200000      0.0000000E+00
 -0.5000000      0.0000000E+00
 -0.4800000      0.0000000E+00
 -0.4600000      0.0000000E+00
 -0.4400000      0.0000000E+00
 -0.4200000      0.0000000E+00
 -0.4000000      0.0000000E+00
 -0.3800000      0.0000000E+00
 -0.3600000      0.0000000E+00
 -0.3400000      0.0000000E+00
 -0.3200000      0.0000000E+00
 -0.3000000      0.0000000E+00
 -0.2800000      0.0000000E+00
 -0.2600000      0.0000000E+00
 -0.2400000      0.0000000E+00
 -0.2200000      0.0000000E+00
 -0.2000000      0.0000000E+00
 -0.1800000      0.0000000E+00
 -0.1600000      0.0000000E+00
 -0.1400000      0.0000000E+00
 -0.1200000      0.0000000E+00
 -0.1000000      0.0000000E+00
 -7.9999998E-02  0.0000000E+00
 -5.9999999E-02  0.0000000E+00
 -3.9999999E-02  0.0000000E+00
 -2.0000000E-02  0.0000000E+00
  0.0000000E+00  0.0000000E+00
  2.0000000E-02  0.0000000E+00
  3.9999999E-02  0.0000000E+00
  5.9999999E-02  0.0000000E+00
  7.9999998E-02  0.0000000E+00
  0.1000000      0.0000000E+00
  0.1200000      0.0000000E+00
  0.1400000      0.0000000E+00
  0.1600000      0.0000000E+00
  0.1800000      0.0000000E+00
  0.2000000      0.0000000E+00
  0.2200000      0.0000000E+00
  0.2400000      0.0000000E+00
  0.2600000      0.0000000E+00
  0.2800000      0.0000000E+00
  0.3000000      0.0000000E+00
  0.3200000      0.0000000E+00
  0.3400000      0.0000000E+00
  0.3600000      0.0000000E+00
  0.3800000      0.0000000E+00
  0.4000000      0.0000000E+00
  0.4200000      0.0000000E+00
  0.4400000      0.0000000E+00
  0.4600000      0.0000000E+00
  0.4800000      0.0000000E+00
  0.5000000      0.0000000E+00
  0.5200000      0.0000000E+00
  0.5400000      0.0000000E+00
  0.5600000      0.0000000E+00
  0.5800000      0.0000000E+00
  0.6000000      0.0000000E+00
  0.6200000      0.0000000E+00
  0.6400000      0.0000000E+00
  0.6600000      0.0000000E+00
  0.6800000      0.0000000E+00
  0.7000000      0.0000000E+00
  0.7200000      0.0000000E+00
  0.7400000      0.0000000E+00
  0.7600000      0.0000000E+00
  0.7800000      0.0000000E+00
  0.8000000      0.0000000E+00
  0.8200000      0.0000000E+00
  0.8400000      0.0000000E+00
  0.8600000      0.0000000E+00
  0.8800000      0.0000000E+00
  0.9000000      0.0000000E+00
  0.9200000      0.0000000E+00
  0.9400000      0.0000000E+00
  0.9600000      0.0000000E+00
  0.9800000      0.0000000E+00
   1.000000      0.0000000E+00
   1.020000      0.0000000E+00
   1.040000      0.0000000E+00
   1.060000      0.0000000E+00
   1.080000      0.0000000E+00
   1.100000      0.0000000E+00
   1.120000      0.0000000E+00
   1.140000      0.0000000E+00
   1.160000      0.0000000E+00
   1.180000      0.0000000E+00
   1.200000      0.0000000E+00
   1.220000      0.0000000E+00
   1.240000      0.0000000E+00
   1.260000      0.0000000E+00
   1.280000      0.0000000E+00
   1.300000      0.0000000E+00
   1.320000      0.0000000E+00
   1.340000      0.0000000E+00
   1.360000      0.0000000E+00
   1.380000      0.0000000E+00
   1.400000      0.0000000E+00
   1.420000      0.0000000E+00
   1.440000      0.0000000E+00
   1.460000      0.0000000E+00
   1.480000      0.0000000E+00
   1.500000      0.0000000E+00
   1.520000      0.0000000E+00
   1.540000      0.0000000E+00
   1.560000      0.0000000E+00
   1.580000      0.0000000E+00
   1.600000      0.0000000E+00
   1.620000      0.0000000E+00
   1.640000      0.0000000E+00
   1.660000      0.0000000E+00
   1.680000      0.0000000E+00
   1.700000      0.0000000E+00
   1.720000      0.0000000E+00
   1.740000      0.0000000E+00
   1.760000      0.0000000E+00
   1.780000      0.0000000E+00
   1.800000      0.0000000E+00
   1.820000      0.0000000E+00
   1.840000      0.0000000E+00
   1.860000      0.0000000E+00
   1.880000      0.0000000E+00
   1.900000      0.0000000E+00
   1.920000      0.0000000E+00
   1.940000      0.0000000E+00
   1.960000      0.0000000E+00
   1.980000      0.0000000E+00
   2.000000      0.0000000E+00
   2.020000      0.0000000E+00
   2.040000      0.0000000E+00
   2.060000      0.0000000E+00
   2.080000      0.0000000E+00
   2.100000      0.0000000E+00
   2.120000      0.0000000E+00
   2.140000      0.0000000E+00
   2.160000      0.0000000E+00
   2.180000      0.0000000E+00
   2.200000      0.0000000E+00
   2.220000      0.0000000E+00
   2.240000      0.0000000E+00
   2.260000      0.0000000E+00
   2.280000      0.0000000E+00
   2.300000      0.0000000E+00
   2.320000      0.0000000E+00
   2.340000      0.0000000E+00
   2.360000      0.0000000E+00
   2.380000      0.0000000E+00
   2.400000      0.0000000E+00
   2.420000      0.0000000E+00
   2.440000      0.0000000E+00
   2.460000      0.0000000E+00
   2.480000      0.0000000E+00
   2.500000      0.0000000E+00
   2.520000      0.0000000E+00
   2.540000      0.0000000E+00
   2.560000      0.0000000E+00
   2.580000      0.0000000E+00
   2.600000      0.0000000E+00
   2.620000      0.0000000E+00
   2.640000      0.0000000E+00
   2.660000      0.0000000E+00
   2.680000      0.0000000E+00
   2.700000      0.0000000E+00
   2.720000      0.0000000E+00
   2.740000      0.0000000E+00
   2.760000      0.0000000E+00
   2.780000      0.0000000E+00
   2.800000      0.0000000E+00
   2.820000      0.0000000E+00
   2.840000      0.0000000E+00
   2.860000      0.0000000E+00
   2.880000      0.0000000E+00
   2.900000      0.0000000E+00
   2.920000      0.0000000E+00
   2.940000      0.0000000E+00
   2.960000      0.0000000E+00
   2.980000      0.0000000E+00
   3.000000      0.0000000E+00
   3.020000      0.0000000E+00
   3.040000      0.0000000E+00
   3.060000      0.0000000E+00
   3.080000      0.0000000E+00
   3.100000      0.0000000E+00
   3.120000      0.0000000E+00
   3.140000      0.0000000E+00
   3.160000      0.0000000E+00
   3.180000      0.0000000E+00
   3.200000      0.0000000E+00
   3.220000      0.0000000E+00
   3.240000      0.0000000E+00
   3.260000      0.0000000E+00
   3.280000      0.0000000E+00
   3.300000      0.0000000E+00
   3.320000      0.0000000E+00
   3.340000      0.0000000E+00
   3.360000      0.0000000E+00
   3.380000      0.0000000E+00
   3.400000      0.0000000E+00
   3.420000      0.0000000E+00
   3.440000      0.0000000E+00
   3.460000      0.0000000E+00
   3.480000      0.0000000E+00
   3.500000      0.0000000E+00
   3.520000      0.0000000E+00
   3.540000      0.0000000E+00
   3.560000      0.0000000E+00
   3.580000      0.0000000E+00
   3.600000      0.0000000E+00
   3.620000      0.0000000E+00
   3.640000      0.0000000E+00
   3.660000      0.0000000E+00
   3.680000      0.0000000E+00
   3.700000      0.0000000E+00
   3.720000      0.0000000E+00
   3.740000      0.0000000E+00
   3.760000      0.0000000E+00
   3.780000      0.0000000E+00
   3.800000      0.0000000E+00
   3.820000      0.0000000E+00
   3.840000      0.0000000E+00
   3.860000      0.0000000E+00
   3.880000      0.0000000E+00
   3.900000      0.0000000E+00
   3.920000      0.0000000E+00
   3.940000      0.0000000E+00
   3.960000      0.0000000E+00
   3.980000      0.0000000E+00
   4.000000      0.0000000E+00
   4.020000      0.0000000E+00
   4.040000      0.0000000E+00
   4.060000      0.0000000E+00
   4.080000      0.0000000E+00
   4.100000      0.0000000E+00
   4.120000      0.0000000E+00
   4.140000      0.0000000E+00
   4.160000      0.0000000E+00
   4.180000      0.0000000E+00
   4.200000      0.0000000E+00
   4.220000      0.0000000E+00
   4.240000      0.0000000E+00
   4.260000      0.0000000E+00
   4.280000      0.0000000E+00
   4.300000      0.0000000E+00
   4.320000      0.0000000E+00
   4.340000      0.0000000E+00
   4.360000      0.0000000E+00
   4.380000      0.0000000E+00
   4.400000      0.0000000E+00
   4.420000      0.0000000E+00
   4.440000      0.0000000E+00
   4.460000      0.0000000E+00
   4.480000      0.0000000E+00
   4.500000      0.0000000E+00
   4.520000      0.0000000E+00
   4.540000      0.0000000E+00
   4.560000      0.0000000E+00
   4.580000      0.0000000E+00
   4.600000      0.0000000E+00
   4.620000      0.0000000E+00
   4.640000      0.0000000E+00
   4.660000      0.0000000E+00
   4.680000      0.0000000E+00
   4.700000      0.0000000E+00
   4.720000      0.0000000E+00
   4.740000      0.0000000E+00
   4.760000      0.0000000E+00
   4.780000      0.0000000E+00
   4.800000      0.0000000E+00
   4.820000      0.0000000E+00
   4.840000      0.0000000E+00
   4.860000      0.0000000E+00
   4.880000      0.0000000E+00
   4.900000      0.0000000E+00
   4.920000      0.0000000E+00
   4.940000      0.0000000E+00
   4.960000      0.0000000E+00
   4.980000      0.0000000E+00
   5.000000      0.0000000E+00
   5.020000      0.0000000E+00
   5.040000      0.0000000E+00
   5.060000      0.0000000E+00
   5.080000      0.0000000E+00
   5.100000      0.0000000E+00
   5.120000      0.0000000E+00
   5.140000      0.0000000E+00
   5.160000      0.0000000E+00
   5.180000      0.0000000E+00
   5.200000      0.0000000E+00
   5.220000      0.0000000E+00
   5.240000      0.0000000E+00
   5.260000      0.0000000E+00
   5.280000      0.0000000E+00
   5.300000      0.0000000E+00
   5.320000      0.0000000E+00
   5.340000      0.0000000E+00
   5.360000      0.0000000E+00
   5.380000      0.0000000E+00
   5.400000      0.0000000E+00
   5.420000      0.0000000E+00
   5.440000      0.0000000E+00
   5.460000      0.0000000E+00
   5.480000      0.0000000E+00
   5.500000      0.0000000E+00
   5.520000      0.0000000E+00
   5.540000      0.0000000E+00
   5.560000      0.0000000E+00
   5.580000      0.0000000E+00
   5.600000      0.0000000E+00
   5.620000      0.0000000E+00
   5.640000      0.0000000E+00
   5.660000      0.0000000E+00
   5.680000      0.0000000E+00
   5.700000      0.0000000E+00
   5.720000      0.0000000E+00
   5.740000      0.0000000E+00
   5.760000      0.0000000E+00
   5.780000      0.0000000E+00
   5.800000      0.0000000E+00
   5.820000      0.0000000E+00
   5.840000      0.0000000E+00
   5.860000      0.0000000E+00
   5.880000      0.0000000E+00
   5.900000      0.0000000E+00
   5.920000      0.0000000E+00
   5.940000      0.0000000E+00
   5.960000      0.0000000E+00
   5.980000      0.0000000E+00
   6.000000      0.0000000E+00
   6.020000      0.0000000E+00
   6.040000      0.0000000E+00
   6.060000      0.0000000E+00
   6.080000      0.0000000E+00
   6.100000      0.0000000E+00
   6.120000      0.0000000E+00
   6.140000      0.0000000E+00
   6.160000      0.0000000E+00
   6.180000      0.0000000E+00
   6.200000      0.0000000E+00
   6.220000      0.0000000E+00
   6.240000      0.0000000E+00
   6.260000      0.0000000E+00
   6.280000      0.0000000E+00
   6.300000      0.0000000E+00
   6.320000      0.0000000E+00
   6.340000      0.0000000E+00
   6.360000      0.0000000E+00
   6.380000      0.0000000E+00
   6.400000      0.0000000E+00
   6.420000      0.0000000E+00
   6.440000      0.0000000E+00
   6.460000      0.0000000E+00
   6.480000      0.0000000E+00
   6.500000      0.0000000E+00
   6.520000      0.0000000E+00
   6.540000      0.0000000E+00
   6.560000      0.0000000E+00
   6.580000      0.0000000E+00
   6.600000      0.0000000E+00
   6.620000      0.0000000E+00
   6.640000      0.0000000E+00
   6.660000      0.0000000E+00
   6.680000      0.0000000E+00
   6.700000      0.0000000E+00
   6.720000      0.0000000E+00
   6.740000      0.0000000E+00
   6.760000      0.0000000E+00
   6.780000      0.0000000E+00
   6.800000      0.0000000E+00
   6.820000      0.0000000E+00
   6.840000      0.0000000E+00
   6.860000      0.0000000E+00
   6.880000      0.0000000E+00
   6.900000      0.0000000E+00
   6.920000      0.0000000E+00
   6.940000      0.0000000E+00
   6.960000      0.0000000E+00
   6.980000      0.0000000E+00
   7.000000      0.0000000E+00
   7.020000      0.0000000E+00
   7.040000      0.0000000E+00
   7.060000      0.0000000E+00
   7.080000      0.0000000E+00
   7.100000      0.0000000E+00
   7.120000      0.0000000E+00
   7.140000      0.0000000E+00
   7.160000      0.0000000E+00
   7.180000      0.0000000E+00
   7.200000      0.0000000E+00
   7.220000      0.0000000E+00
   7.240000      0.0000000E+00
   7.260000      0.0000000E+00
   7.280000      0.0000000E+00
   7.300000      0.0000000E+00
   7.320000      0.0000000E+00
   7.340000      0.0000000E+00
   7.360000      0.0000000E+00
   7.380000      0.0000000E+00
   7.400000      0.0000000E+00
   7.420000      0.0000000E+00
   7.440000      0.0000000E+00
   7.460000      0.0000000E+00
   7.480000      0.0000000E+00
   7.500000      0.0000000E+00
   7.520000      0.0000000E+00
   7.540000      0.0000000E+00
   7.560000      0.0000000E+00
   7.580000      0.0000000E+00
   7.600000      0.0000000E+00
   7.620000      0.0000000E+00
   7.640000      0.0000000E+00
   7.660000      0.0000000E+00
   7.680000      0.0000000E+00
   7.700000      0.0000000E+00
   7.720000      0.0000000E+00
   7.740000      0.0000000E+00
   7.760000      0.0000000E+00
   7.780000      0.0000000E+00
   7.800000      0.0000000E+00
   7.820000      0.0000000E+00
   7.840000      0.0000000E+00
   7.860000      0.0000000E+00
   7.880000      0.0000000E+00
   7.900000      0.0000000E+00
   7.920000      0.0000000E+00
   7.940000      0.0000000E+00
   7.960000      0.0000000E+00
   7.980000      0.0000000E+00
   8.000000      0.0000000E+00
   8.020000      0.0000000E+00
   8.040000      0.0000000E+00
   8.060000      0.0000000E+00
   8.080000      0.0000000E+00
   8.100000      0.0000000E+00
   8.120000      0.0000000E+00
   8.140000      0.0000000E+00
   8.160000      0.0000000E+00
   8.180000      0.0000000E+00
   8.200000      0.0000000E+00
   8.220000      0.0000000E+00
   8.240000      0.0000000E+00
   8.260000      0.0000000E+00
   8.280000      0.0000000E+00
   8.300000      0.0000000E+00
   8.320000      0.0000000E+00
   8.340000      0.0000000E+00
   8.360000      0.0000000E+00
   8.380000      0.0000000E+00
   8.400000      0.0000000E+00
   8.420000      0.0000000E+00
   8.440000      0.0000000E+00
   8.460000      0.0000000E+00
   8.480000      0.0000000E+00
   8.500000      0.0000000E+00
   8.520000      0.0000000E+00
   8.540000      0.0000000E+00
   8.560000      0.0000000E+00
   8.580000      0.0000000E+00
   8.600000      0.0000000E+00
   8.620000      0.0000000E+00
   8.640000      0.0000000E+00
   8.660000      0.0000000E+00
   8.680000      0.0000000E+00
   8.700000      0.0000000E+00
   8.720000      0.0000000E+00
   8.740000      0.0000000E+00
   8.760000      0.0000000E+00
   8.780000      0.0000000E+00
   8.800000      0.0000000E+00
   8.820000      0.0000000E+00
   8.840000      0.0000000E+00
   8.860000      0.0000000E+00
   8.880000      0.0000000E+00
   8.900000      0.0000000E+00
   8.920000      0.0000000E+00
   8.940000      0.0000000E+00
   8.960000      0.0000000E+00
   8.980000      0.0000000E+00
   9.000000      0.0000000E+00
   9.020000     -1.4489499E-38
   9.040000      0.0000000E+00
   9.060000      0.0000000E+00
   9.080000      1.5359777E-38
   9.100000      0.0000000E+00
   9.120000     -2.1937220E-38
   9.140000     -4.4612528E-38
   9.160000     -3.0898934E-38
   9.180000      9.3192749E-38
   9.200000      2.7977650E-37
   9.220000      2.3793315E-37
   9.240000     -1.6005046E-37
   9.260000     -8.8091011E-37
   9.280000     -1.1696267E-36
   9.300000     -4.1756712E-37
   9.320000      9.5412354E-37
   9.340000      1.1558710E-36
   9.360000     -1.3548328E-36
   9.380000     -5.4658008E-36
   9.400000     -6.4785107E-36
   9.420000     -9.8230556E-37
   9.440000      9.0517872E-36
   9.460000      1.3068243E-35
   9.480000      3.2227332E-36
   9.500000     -1.5641690E-35
   9.520000     -2.5860213E-35
   9.540000     -1.3529040E-35
   9.560000      1.8487171E-35
   9.580000      4.3352846E-35
   9.600000      3.5392264E-35
   9.620000     -9.4315248E-36
   9.640000     -5.9967379E-35
   9.660000     -7.1052366E-35
   9.680000     -2.0810652E-35
   9.700000      6.4255139E-35
   9.720000      1.1766881E-34
   9.740000      7.9876988E-35
   9.760000     -4.4808091E-35
   9.780000     -1.7103831E-34
   9.800000     -1.8483872E-34
   9.820000     -3.6234335E-35
   9.840000      1.9561186E-34
   9.860000      3.2942132E-34
   9.880000      2.1163570E-34
   9.900000     -1.3574116E-34
   9.920000     -4.7524952E-34
   9.940000     -4.9609397E-34
   9.960000     -7.0873407E-35
   9.980000      5.6534639E-34
   10.00000      9.0467533E-34
   10.02000      5.3568145E-34
   10.04000     -4.4775333E-34
   10.06000     -1.3590129E-33
   10.08000     -1.3431838E-33
   10.10000     -1.0051359E-34
   10.12000      1.6517652E-33
   10.14000      2.4902666E-33
   10.16000      1.3457236E-33
   10.18000     -1.4039160E-33
   10.20000     -3.7947959E-33
   10.22000     -3.5368461E-33
   10.24000      1.2837350E-35
   10.26000      4.7232079E-33
   10.28000      6.7111985E-33
   10.30000      3.2873100E-33
   10.32000     -4.2206896E-33
   10.34000     -1.0363987E-32
   10.36000     -9.1619448E-33
   10.38000      6.7175484E-34
   10.40000      1.3061647E-32
   10.42000      1.7686914E-32
   10.44000      7.9153044E-33
   10.46000     -1.2062351E-32
   10.48000     -2.7568995E-32
   10.50000     -2.3302762E-32
   10.52000      3.1413224E-33
   10.54000      3.5075981E-32
   10.56000      4.5692338E-32
   10.58000      1.8877785E-32
   10.60000     -3.3075707E-32
   10.62000     -7.1663414E-32
   10.64000     -5.8425296E-32
   10.66000      1.0782054E-32
   10.68000      9.1603977E-32
   10.70000      1.1584628E-31
   10.72000      4.4816469E-32
   10.74000     -8.7404217E-32
   10.76000     -1.8223333E-31
   10.78000     -1.4454618E-31
   10.80000      3.2075482E-32
   10.82000      2.3317877E-31
   10.84000      2.8862265E-31
   10.86000      1.0630648E-31
   10.88000     -2.2349582E-31
   10.90000     -4.5399031E-31
   10.92000     -3.5330529E-31
   10.94000      8.7043817E-32
   10.96000      5.7952647E-31
   10.98000      7.0722635E-31
   11.00000      2.5247110E-31
   11.02000     -5.5460830E-31
   11.04000     -1.1089537E-30
   11.06000     -8.5316073E-31
   11.08000      2.2084273E-31
   11.10000      1.4081433E-30
   11.12000      1.7046003E-30
   11.14000      5.9945044E-31
   11.16000     -1.3394735E-30
   11.18000     -2.6577515E-30
   11.20000     -2.0339425E-30
   11.22000      5.3179581E-31
   11.24000      3.3496831E-30
   11.26000      4.0416885E-30
   11.28000      1.4191585E-30
   11.30000     -3.1560485E-30
   11.32000     -6.2532771E-30
   11.34000     -4.7841319E-30
   11.36000      1.2249000E-30
   11.38000      7.8076402E-30
   11.40000      9.4260052E-30
   11.42000      3.3405951E-30
   11.44000     -7.2645498E-30
   11.46000     -1.4445268E-29
   11.48000     -1.1090369E-29
   11.50000      2.7127617E-30
   11.52000      1.7840214E-29
   11.54000      2.1611254E-29
   11.56000      7.7860819E-30
   11.58000     -1.6360832E-29
   11.60000     -3.2764477E-29
   11.62000     -2.5305070E-29
   11.64000      5.8122222E-30
   11.66000      3.9996795E-29
   11.68000      4.8702260E-29
   11.70000      1.7905503E-29
   11.72000     -3.6118195E-29
   11.74000     -7.3009067E-29
   11.76000     -5.6806369E-29
   11.78000      1.2093484E-29
   11.80000      8.8062268E-29
   11.82000      1.0790764E-28
   11.84000      4.0566419E-29
   11.86000     -7.8246507E-29
   11.88000     -1.5989720E-28
   11.90000     -1.2544169E-28
   11.92000      2.4488927E-29
   11.94000      1.9053064E-28
   11.96000      2.3508678E-28
   11.98000      9.0385734E-29
   12.00000     -1.6657832E-28
   12.02000     -3.4435278E-28
   12.04000     -2.7238567E-28
   12.06000      4.8552721E-29
   12.08000      4.0557875E-28
   12.10000      5.0382684E-28
   12.12000      1.9773940E-28
   12.14000     -3.4929544E-28
   12.16000     -7.3011157E-28
   12.18000     -5.8190745E-28
   12.20000      9.4850262E-29
   12.22000      8.5082683E-28
   12.24000      1.0635227E-27
   12.26000      4.2506410E-28
   12.28000     -7.2266289E-28
   12.30000     -1.5260871E-27
   12.32000     -1.2245854E-27
   12.34000      1.8295918E-28
   12.36000      1.7610528E-27
   12.38000      2.2136610E-27
   12.40000      8.9890710E-28
   12.42000     -1.4769116E-27
   12.44000     -3.1479930E-27
   12.46000     -2.5410387E-27
   12.48000      3.4974861E-28
   12.50000      3.6010441E-27
   12.52000      4.5487422E-27
   12.54000      1.8721512E-27
   12.56000     -2.9865823E-27
   12.58000     -6.4183110E-27
   12.60000     -5.2078725E-27
   12.62000      6.6313321E-28
   12.64000      7.2857729E-27
   12.66000      9.2455446E-27
   12.68000      3.8542161E-27
   12.70000     -5.9778543E-27
   12.72000     -1.2954252E-26
   12.74000     -1.0571074E-26
   12.76000      1.2294738E-27
   12.78000      1.4591445E-26
   12.80000      1.8620076E-26
   12.82000      7.8837257E-27
   12.84000     -1.1822409E-26
   12.86000     -2.5899558E-26
   12.88000     -2.1299680E-26
   12.90000      2.1741278E-27
   12.92000      2.8915909E-26
   12.94000      3.7199959E-26
   12.96000      1.6092126E-26
   12.98000     -2.3052828E-26
   13.00000     -5.1319565E-26
   13.02000     -4.2698480E-26
   13.04000      3.5033062E-27
   13.06000      5.6671798E-26
   13.08000      7.3830811E-26
   13.10000      3.2959823E-26
   13.12000     -4.4145895E-26
   13.14000     -1.0080149E-25
   13.16000     -8.5392603E-26
   13.18000      4.4757464E-27
   13.20000      1.0961777E-25
   13.22000      1.4566803E-25
   13.24000      6.8088193E-26
   13.26000     -8.2421173E-26
   13.28000     -1.9599715E-25
   13.30000     -1.7056264E-25
   13.32000      1.7407362E-27
   13.34000      2.0850348E-25
   13.36000      2.8545556E-25
   13.38000      1.4197125E-25
   13.40000     -1.4869720E-25
   13.42000     -3.7643582E-25
   13.44000     -3.4006894E-25
   13.46000     -1.5471605E-26
   13.48000      3.8845293E-25
   13.50000      5.5484226E-25
   13.52000      2.9827427E-25
   13.54000     -2.5592642E-25
   13.56000     -7.1225571E-25
   13.58000     -6.7602269E-25
   13.60000     -7.7805702E-26
   13.62000      7.0461865E-25
   13.64000      1.0670811E-24
   13.66000      6.2911445E-25
   13.68000     -4.1037153E-25
   13.70000     -1.3215224E-24
   13.72000     -1.3354494E-24
   13.74000     -2.6408386E-25
   13.76000      1.2331430E-24
   13.78000      2.0215533E-24
   13.80000      1.3222970E-24
   13.82000     -5.8594862E-25
   13.84000     -2.3898019E-24
   13.86000     -2.6080302E-24
   13.88000     -7.5946538E-25
   13.90000      2.0574557E-24
   13.92000      3.7533607E-24
   13.94000      2.7479197E-24
   13.96000     -6.6006388E-25
   13.98000     -4.1817568E-24
   14.00000     -5.0090269E-24
   14.02000     -1.9746697E-24
   14.04000      3.2077707E-24
   14.06000      6.7879603E-24
   14.08000      5.6085025E-24
   14.10000     -2.6253259E-25
   14.12000     -7.0012604E-24
   14.14000     -9.3998827E-24
   14.16000     -4.7658152E-24
   14.18000      4.4875721E-24
   14.20000      1.1850427E-23
   14.22000      1.1155440E-23
   14.24000      1.5227326E-24
   14.26000     -1.1019317E-23
   14.28000     -1.7092917E-23
   14.30000     -1.0786365E-23
   14.32000      5.0945193E-24
   14.34000      1.9740167E-23
   14.36000      2.1460237E-23
   14.38000      6.6968051E-24
   14.40000     -1.5822754E-23
   14.42000     -2.9847622E-23
   14.44000     -2.3025826E-23
   14.46000      2.8335280E-24
   14.48000      3.0836762E-23
   14.50000      3.9645792E-23
   14.52000      1.9281562E-23
   14.54000     -1.9324893E-23
   14.56000     -4.9405797E-23
   14.58000     -4.6441144E-23
   14.60000     -7.3643408E-24
   14.62000      4.3694157E-23
   14.64000      6.9607401E-23
   14.66000      4.6589339E-23
   14.68000     -1.5591749E-23
   14.70000     -7.5852737E-23
   14.72000     -8.8168888E-23
   14.74000     -3.5691564E-23
   14.76000      5.2055707E-23
   14.78000      1.1439659E-22
   14.80000      1.0045704E-22
   14.82000      8.8617818E-24
   14.84000     -1.0377045E-22
   14.86000     -1.5643981E-22
   14.88000     -1.0053938E-22
   14.90000      3.9093555E-23
   14.92000      1.7160130E-22
   14.94000      1.9753311E-22
   14.96000      8.1106646E-23
   14.98000     -1.1378623E-22
   15.00000     -2.5556887E-22
   15.02000     -2.3142425E-22
   15.04000     -3.2923684E-23
   15.06000      2.2179333E-22
   15.08000      3.5485261E-22
   15.10000      2.4919636E-22
   15.12000     -5.6550245E-23
   15.14000     -3.7155018E-22
   15.16000     -4.6719685E-22
   15.18000     -2.3711801E-22
   15.20000      2.0558046E-22
   15.22000      5.7405426E-22
   15.24000      5.8672258E-22
   15.26000      1.7249342E-22
   15.28000     -4.4136871E-22
   15.30000     -8.4215342E-22
   15.32000     -6.9874517E-22
   15.34000     -1.7057503E-23
   15.36000      8.0298937E-22
   15.38000      1.1863833E-21
   15.40000      7.7004446E-22
   15.42000     -2.9179102E-22
   15.44000     -1.3417862E-21
   15.46000     -1.6045822E-21
   15.48000     -7.3348398E-22
   15.50000      8.5013710E-22
   15.52000      2.1154544E-21
   15.54000      2.0621958E-21
   15.56000      4.6721154E-22
   15.58000     -1.7930628E-21
   15.60000     -3.1705467E-21
   15.62000     -2.4608092E-21
   15.64000      2.2864703E-22
   15.66000      3.2895178E-21
   15.68000      4.5071064E-21
   15.70000      2.5944742E-21
   15.72000     -1.6509359E-21
   15.74000     -5.5164788E-21
   15.76000     -6.0195056E-21
   15.78000     -2.0974303E-21
   15.80000      4.1961309E-21
   15.82000      8.6000942E-21
   15.84000      7.4104340E-21
   15.86000      3.9330106E-22
   15.88000     -8.3293978E-21
   15.90000     -1.2511818E-20
   15.92000     -8.0816152E-21
   15.94000      3.3355456E-21
   15.96000      1.4498686E-20
   15.98000      1.6912112E-20
   16.00000      7.0161355E-21
   16.02000     -1.0129101E-20
   16.04000     -2.2970688E-20
   16.06000     -2.0943966E-20
   16.08000     -2.6825427E-21
   16.10000      2.1142291E-20
   16.12000      3.3569542E-20
   16.14000      2.2994623E-20
   16.16000     -6.9920681E-21
   16.18000     -3.7404564E-20
   16.20000     -4.5310469E-20
   16.22000     -2.0465030E-20
   16.24000      2.4517068E-20
   16.26000      5.9405145E-20
   16.28000      5.5942587E-20
   16.30000      9.6120350E-21
   16.32000     -5.2530008E-20
   16.34000     -8.6480996E-20
   16.36000     -6.1450446E-20
   16.38000      1.4443519E-20
   16.40000      9.3214789E-20
   16.42000      1.1601831E-19
   16.44000      5.5609957E-20
   16.46000     -5.7422251E-20
   16.48000     -1.4738888E-19
   16.50000     -1.4252504E-19
   16.52000     -2.9746016E-20
   16.54000      1.2516459E-19
   16.56000      2.1322793E-19
   16.58000      1.5668955E-19
   16.60000     -2.7114896E-20
   16.62000     -2.2234010E-19
   16.64000     -2.8464293E-19
   16.66000     -1.4459462E-19
   16.68000      1.2748355E-19
   16.70000      3.5048361E-19
   16.72000      3.4940096E-19
   16.74000      8.7324940E-20
   16.76000     -2.8382309E-19
   16.78000     -5.0533446E-19
   16.80000     -3.8719815E-19
   16.82000      3.8726758E-20
   16.84000      5.0596058E-19
   16.86000      6.7358661E-19
   16.88000      3.6805334E-19
   16.90000     -2.6044715E-19
   16.92000     -7.9734183E-19