  -2.400000      0.0000000E+00
  -2.380000      0.0000000E+00
  -2.360000      0.0000000E+00
  -2.340000      0.0000000E+00
  -2.320000      0.0000000E+00
  -2.300000      0.0000000E+00
  -2.280000      0.0000000E+00
  -2.260000      0.0000000E+00
  -2.240000      0.0000000E+00
  -2.220000      0.0000000E+00
  -2.200000      0.0000000E+00
  -2.180000      0.0000000E+00
  -2.160000      0.0000000E+00
  -2.140000      0.0000000E+00
  -2.120000      0.0000000E+00
  -2.100000      0.0000000E+00
  -2.080000      0.0000000E+00
  -2.060000      0.0000000E+00
  -2.040000      0.0000000E+00
  -2.020000      0.0000000E+00
  -2.000000      0.0000000E+00
  -1.980000      0.0000000E+00
  -1.960000      0.0000000E+00
  -1.940000      0.0000000E+00
  -1.920000      0.0000000E+00
  -1.900000      8.1009642E-38
  -1.880000      7.2258958E-37
  -1.860000      3.1606797E-36
  -1.840000      3.8303954E-36
  -1.820000     -1.5472258E-35
  -1.800000     -9.6708265E-35
  -1.780000     -2.3382839E-34
  -1.760000     -6.5991535E-35
  -1.740000      1.5322314E-33
  -1.720000      5.6613472E-33
  -1.700000      8.6563463E-33
  -1.680000     -6.5399414E-33
  -1.660000     -6.8406254E-32
  -1.640000     -1.6834647E-31
  -1.620000     -1.4539000E-31
  -1.600000      3.8485861E-31
  -1.580000      1.7089756E-30
  -1.560000      2.9449884E-30
  -1.540000      7.5929896E-31
  -1.520000     -9.5859078E-30
  -1.500000     -2.7141083E-29
  -1.480000     -3.2811861E-29
  -1.460000      1.4554496E-29
  -1.440000      1.4595823E-28
  -1.420000      2.9919940E-28
  -1.400000      2.3830718E-28
  -1.380000     -3.7001330E-28
  -1.360000     -1.5582979E-27
  -1.340000     -2.4375055E-27
  -1.320000     -1.0082366E-27
  -1.300000      4.5395598E-27
  -1.280000      1.2646158E-26
  -1.260000      1.5278151E-26
  -1.240000     -2.0217462E-28
  -1.220000     -3.9405639E-26
  -1.200000     -8.2203189E-26
  -1.180000     -7.3922732E-26
  -1.160000      4.6732992E-26
  -1.140000      2.7142584E-25
  -1.120000      4.3864404E-25
  -1.100000      2.4970347E-25
  -1.080000     -5.0599811E-25
  -1.060000     -1.5540573E-24
  -1.040000     -1.8904683E-24
  -1.020000     -2.1594988E-25
  -1.000000      3.6970459E-24
 -0.9800000      7.4172284E-24
 -0.9600000      5.9320616E-24
 -0.9400000     -4.7315739E-24
 -0.9200000     -2.1071439E-23
 -0.9000000     -2.8275760E-23
 -0.8800000     -7.1251739E-24
 -0.8600000      4.5543998E-23
 -0.8400000      9.5185358E-23
 -0.8200000      7.4382054E-23
 -0.8000000     -6.3576913E-23
 -0.7800000     -2.6163568E-22
 -0.7600000     -3.2562507E-22
 -0.7400000     -3.6581582E-23
 -0.7200000      5.8960090E-22
 -0.7000000      1.0867272E-21
 -0.6800000      6.9305644E-22
 -0.6600000     -9.5962291E-22
 -0.6400000     -2.9946747E-21
 -0.6200000     -3.2178986E-21
 -0.6000000      3.4696897E-22
 -0.5800000      6.7714621E-21
 -0.5600000      1.0729414E-20
 -0.5400000      5.1560514E-21
 -0.5200000     -1.1571524E-20
 -0.5000000     -2.8897467E-20
 -0.4800000     -2.6498319E-20
 -0.4600000      9.3574492E-21
 -0.4400000      6.3814516E-20
 -0.4200000      8.7827743E-20
 -0.4000000      2.8924193E-20
 -0.3800000     -1.0961649E-19
 -0.3600000     -2.2933265E-19
 -0.3400000     -1.7859009E-19
 -0.3200000      1.1192804E-19
 -0.3000000      4.8901217E-19
 -0.2800000      5.9092160E-19
 -0.2600000      1.0950907E-19
 -0.2400000     -8.2532783E-19
 -0.2200000     -1.4913989E-18
 -0.2000000     -9.7968387E-19
 -0.1800000      9.2433029E-19
 -0.1600000      3.0561577E-18
 -0.1400000      3.2682520E-18
 -0.1200000      1.4691205E-19
 -0.1000000     -5.0163653E-18
 -7.9999998E-02 -7.9882494E-18
 -5.9999999E-02 -4.3716748E-18
 -3.9999999E-02  5.8369268E-18
 -2.0000000E-02  1.5761000E-17
  0.0000000E+00  1.5015164E-17
  2.0000000E-02 -1.4194064E-18
  3.9999999E-02 -2.5156055E-17
  5.9999999E-02 -3.5989381E-17
  7.9999998E-02 -1.6406156E-17
  0.1000000      2.9358311E-17
  0.1200000      6.8866955E-17
  0.1400000      6.0198850E-17
  0.1600000     -1.1091377E-17
  0.1800000     -1.0512926E-16
  0.2000000     -1.4197273E-16
  0.2200000     -6.0990455E-17
  0.2400000      1.1290686E-16
  0.2600000      2.5687357E-16
  0.2800000      2.2509525E-16
  0.3000000     -2.5070307E-17
  0.3200000     -3.5364602E-16
  0.3400000     -4.9578352E-16
  0.3600000     -2.5363565E-16
  0.3800000      3.0329105E-16
  0.4000000      8.0454101E-16
  0.4200000      7.9666429E-16
  0.4400000      1.0512311E-16
  0.4600000     -9.2387588E-16
  0.4800000     -1.5427036E-15
  0.5000000     -1.0933356E-15
  0.5200000      4.2115934E-16
  0.5400000      2.1237433E-15
  0.5600000      2.6877747E-15
  0.5800000      1.2565587E-15
  0.6000000     -1.7114835E-15
  0.6200000     -4.3587261E-15
  0.6400000     -4.4249912E-15
  0.6600000     -9.1633199E-16
  0.6800000      4.6315457E-15
  0.7000000      8.4547076E-15
  0.7200000      6.7861629E-15
  0.7400000     -1.0545289E-15
  0.7600000     -1.0914774E-14
  0.7800000     -1.5406769E-14
  0.8000000     -8.8489574E-15
  0.8200000      7.3173262E-15
  0.8400000      2.3091758E-14
  0.8600000      2.5242366E-14
  0.8800000      7.3557112E-15
  0.9000000     -2.2356183E-14
  0.9200000     -4.3070660E-14
  0.9400000     -3.4852001E-14
  0.9600000      4.2199164E-15
  0.9800000      5.0936807E-14
   1.000000      6.9105305E-14
   1.020000      3.6217889E-14
   1.040000     -3.4080340E-14
   1.060000     -9.4036676E-14
   1.080000     -9.2918301E-14
   1.100000     -1.8018602E-14
   1.120000      8.6628939E-14
   1.140000      1.4428034E-13
   1.160000      1.0098098E-13
   1.180000     -2.7247683E-14
   1.200000     -1.5553941E-13
   1.220000     -1.8636062E-13
   1.240000     -8.3442083E-14
   1.260000      9.3121813E-14
   1.280000      2.2243847E-13
   1.300000      2.0768897E-13
   1.320000      4.8515388E-14
   1.340000     -1.5448009E-13
   1.360000     -2.6800288E-13
   1.380000     -2.1681627E-13
   1.400000     -3.1264244E-14
   1.420000      1.7828377E-13
   1.440000      2.9414221E-13
   1.460000      2.5618247E-13
   1.480000      8.1899663E-14
   1.500000     -1.5322818E-13
   1.520000     -3.4638882E-13
   1.540000     -3.9427606E-13
   1.560000     -2.2843966E-13
   1.580000      1.2985564E-13
   1.600000      5.2456981E-13
   1.620000      6.9586855E-13
   1.640000      4.2695914E-13
   1.660000     -2.5357887E-13
   1.680000     -9.7457990E-13
   1.700000     -1.1794841E-12
   1.720000     -5.1885785E-13
   1.740000      7.7090510E-13
   1.760000      1.8468538E-12
   1.780000      1.7554697E-12
   1.800000      2.0189524E-13
   1.820000     -1.9821208E-12
   1.840000     -3.1807202E-12
   1.860000     -2.1161926E-12
   1.880000      9.7115978E-13
   1.900000      4.0854867E-12
   1.920000      4.6659521E-12
   1.940000      1.5935057E-12
   1.960000     -3.4855844E-12
   1.980000     -6.8475455E-12
   2.000000     -5.3311400E-12
   2.020000      8.4816204E-13
   2.040000      7.5036288E-12
   2.060000      9.1603270E-12
   2.080000      3.4601887E-12
   2.100000     -6.1539988E-12
   2.120000     -1.2208843E-11
   2.140000     -8.8507500E-12
   2.160000      2.7539286E-12
   2.180000      1.4068350E-11
   2.200000      1.5215999E-11
   2.220000      3.3394342E-12
   2.240000     -1.3627983E-11
   2.260000     -2.1943796E-11
   2.280000     -1.2973231E-11
   2.300000      8.5159050E-12
   2.320000      2.6354235E-11
   2.340000      2.5096755E-11
   2.360000      3.1976834E-12
   2.380000     -2.4000574E-11
   2.400000     -3.5225614E-11
   2.420000     -2.0249037E-11
   2.440000      1.1030735E-11
   2.460000      3.5610341E-11
   2.480000      3.5349779E-11
   2.500000      1.1062068E-11
   2.520000     -1.9075254E-11
   2.540000     -3.4919567E-11
   2.560000     -2.9562203E-11
   2.580000     -1.1184372E-11
   2.600000      8.1377197E-12
   2.620000      2.3417334E-11
   2.640000      3.5347076E-11
   2.660000      3.9386525E-11
   2.680000      2.1731976E-11
   2.700000     -2.6166094E-11
   2.720000     -8.4951900E-11
   2.740000     -1.0471429E-10
   2.760000     -4.0231783E-11
   2.780000      9.5346515E-11
   2.800000      2.0996124E-10
   2.820000      1.8512505E-10
   2.840000     -1.9079897E-11
   2.860000     -2.9059810E-10
   2.880000     -4.0955847E-10
   2.900000     -2.1212561E-10
   2.920000      2.3908620E-10
   2.940000      6.3539846E-10
   2.960000      6.1930711E-10
   2.980000      8.4285912E-11
   3.000000     -6.6295230E-10
   3.020000     -1.0583784E-09
   3.040000     -6.9774686E-10
   3.060000      2.8627925E-10
   3.080000      1.2214679E-09
   3.100000      1.3488715E-09
   3.120000      4.3572590E-10
   3.140000     -9.4105279E-10
   3.160000     -1.7380946E-09
   3.180000     -1.2317101E-09
   3.200000      3.4133649E-10
   3.220000      1.8445816E-09
   3.240000      2.0519437E-09
   3.260000      6.3432620E-10
   3.280000     -1.4708481E-09
   3.300000     -2.6824045E-09
   3.320000     -1.9837183E-09
   3.340000      2.1755500E-10
   3.360000      2.3129094E-09
   3.380000      2.7024880E-09
   3.400000      1.0707125E-09
   3.420000     -1.3118838E-09
   3.440000     -2.5596383E-09
   3.460000     -1.6744072E-09
   3.480000      6.4014322E-10
   3.500000      2.5472020E-09
   3.520000      2.5826785E-09
   3.540000      8.4294394E-10
   3.560000     -1.1612785E-09
   3.580000     -1.8664625E-09
   3.600000     -1.0387093E-09
   3.620000      7.3849919E-11
   3.640000     -5.3334065E-12
   3.660000     -1.4472258E-09
   3.680000     -2.7741671E-09
   3.700000     -2.1655446E-09
   3.720000      6.8273437E-10
   3.740000      3.9224934E-09
   3.760000      4.9782964E-09
   3.780000      2.9877514E-09
   3.800000      4.3661862E-11
   3.820000     -2.1555840E-10
   3.840000      4.1470831E-09
   3.860000      1.0983628E-08
   3.880000      1.4929206E-08
   3.900000      1.1335400E-08
   3.920000      2.5047575E-10
   3.940000     -1.3123080E-08
   3.960000     -2.2486764E-08
   3.980000     -2.6154193E-08
   4.000000     -2.9656338E-08
   4.020000     -4.2524203E-08
   4.040000     -7.1224257E-08
   4.060000     -1.1381534E-07
   4.080000     -1.6112045E-07
   4.100000     -2.0421254E-07
   4.120000     -2.4263068E-07
   4.140000     -2.8656041E-07
   4.160000     -3.5067234E-07
   4.180000     -4.4414566E-07
   4.200000     -5.6498379E-07
   4.220000     -7.0371550E-07
   4.240000     -8.5399785E-07
   4.260000     -1.0216278E-06
   4.280000     -1.2243013E-06
   4.300000     -1.4819267E-06
   4.320000     -1.8054474E-06
   4.340000     -2.1939350E-06
   4.360000     -2.6431437E-06
   4.380000     -3.1588811E-06
   4.400000     -3.7638113E-06
   4.420000     -4.4912708E-06
   4.440000     -5.3707345E-06
   4.460000     -6.4174897E-06
   4.480000     -7.6365041E-06
   4.500000     -9.0387302E-06
   4.520000     -1.0656749E-05
   4.540000     -1.2545788E-05
   4.560000     -1.4767721E-05
   4.580000     -1.7370610E-05
   4.600000     -2.0381905E-05
   4.620000     -2.3823464E-05
   4.640000     -2.7738319E-05
   4.660000     -3.2207423E-05
   4.680000     -3.7340749E-05
   4.700000     -4.3247364E-05
   4.720000     -5.0007890E-05
   4.740000     -5.7673282E-05
   4.760000     -6.6294131E-05
   4.780000     -7.5959222E-05
   4.800000     -8.6812011E-05
   4.820000     -9.9029101E-05
   4.840000     -1.1277475E-04
   4.860000     -1.2816650E-04
   4.880000     -1.4528030E-04
   4.900000     -1.6419310E-04
   4.920000     -1.8503000E-04
   4.940000     -2.0797698E-04
   4.960000     -2.3324628E-04
   4.980000     -2.6101922E-04
   5.000000     -2.9141025E-04
   5.020000     -3.2448044E-04
   5.040000     -3.6028810E-04
   5.060000     -3.9893409E-04
   5.080000     -4.4056177E-04
   5.100000     -4.8530882E-04
   5.120000     -5.3324708E-04
   5.140000     -5.8435806E-04
   5.160000     -6.3856191E-04
   5.180000     -6.9577253E-04
   5.200000     -7.5592776E-04
   5.220000     -8.1896485E-04
   5.240000     -8.8475773E-04
   5.260000     -9.5306622E-04
   5.280000     -1.0235411E-03
   5.300000     -1.0957788E-03
   5.320000     -1.1693788E-03
   5.340000     -1.2439458E-03
   5.360000     -1.3190300E-03
   5.380000     -1.3940491E-03
   5.400000     -1.4682625E-03
   5.420000     -1.5408261E-03
   5.440000     -1.6108913E-03
   5.460000     -1.6776696E-03
   5.480000     -1.7403987E-03
   5.500000     -1.7982371E-03
   5.520000     -1.8501687E-03
   5.540000     -1.8950077E-03
   5.560000     -1.9315158E-03
   5.580000     -1.9585560E-03
   5.600000     -1.9751657E-03
   5.620000     -1.9804933E-03
   5.640000     -1.9736488E-03
   5.660000     -1.9535902E-03
   5.680000     -1.9191577E-03
   5.700000     -1.8692457E-03
   5.720000     -1.8029966E-03
   5.740000     -1.7198800E-03
   5.760000     -1.6195975E-03
   5.780000     -1.5018975E-03
   5.800000     -1.3664532E-03
   5.820000     -1.2129134E-03
   5.840000     -1.0410990E-03
   5.860000     -8.5120229E-04
   5.880000     -6.4384093E-04
   5.900000     -4.1993213E-04
   5.920000     -1.8049117E-04
   5.940000      7.3481700E-05
   5.960000      3.4093767E-04
   5.980000      6.2059599E-04
   6.000000      9.1079442E-04
   6.020000      1.2094987E-03
   6.040000      1.5144678E-03
   6.060000      1.8234436E-03
   6.080000      2.1342207E-03
   6.100000      2.4445553E-03
   6.120000      2.7520154E-03
   6.140000      3.0539236E-03
   6.160000      3.3474702E-03
   6.180000      3.6299180E-03
   6.200000      3.8987484E-03
   6.220000      4.1516344E-03
   6.240000      4.3862835E-03
   6.260000      4.6003079E-03
   6.280000      4.7912793E-03
   6.300000      4.9569560E-03
   6.320000      5.0955256E-03
   6.340000      5.2056811E-03
   6.360000      5.2864514E-03
   6.380000      5.3369384E-03
   6.400000      5.3561777E-03
   6.420000      5.3432793E-03
   6.440000      5.2977544E-03
   6.460000      5.2197943E-03
   6.480000      5.1102601E-03
   6.500000      4.9703750E-03
   6.520000      4.8013455E-03
   6.540000      4.6041929E-03
   6.560000      4.3799481E-03
   6.580000      4.1300436E-03
   6.600000      3.8566014E-03
   6.620000      3.5623589E-03
   6.640000      3.2502627E-03
   6.660000      2.9230232E-03
   6.680000      2.5829517E-03
   6.700000      2.2321888E-03
   6.720000      1.8731222E-03
   6.740000      1.5086426E-03
   6.760000      1.1420163E-03
   6.780000      7.7645411E-04
   6.800000      4.1469777E-04
   6.820000      5.8924761E-05
   6.840000     -2.8897898E-04
   6.860000     -6.2702788E-04
   6.880000     -9.5296005E-04
   6.900000     -1.2644252E-03
   6.920000     -1.5593865E-03
   6.940000     -1.8364101E-03
   6.960000     -2.0946164E-03
   6.980000     -2.3333454E-03
   7.000000     -2.5518306E-03
   7.020000     -2.7491581E-03
   7.040000     -2.9245436E-03
   7.060000     -3.0776879E-03
   7.080000     -3.2088959E-03
   7.100000     -3.3188395E-03
   7.120000     -3.4081512E-03
   7.140000     -3.4771822E-03
   7.160000     -3.5261335E-03
   7.180000     -3.5554559E-03
   7.200000     -3.5661785E-03
   7.220000     -3.5598627E-03
   7.240000     -3.5381862E-03
   7.260000     -3.5024651E-03
   7.280000     -3.4534996E-03
   7.300000     -3.3918722E-03
   7.320000     -3.3184690E-03
   7.340000     -3.2347930E-03
   7.360000     -3.1427948E-03
   7.380000     -3.0443273E-03
   7.400000     -2.9406415E-03
   7.420000     -2.8323159E-03
   7.440000     -2.7196861E-03
   7.460000     -2.6034319E-03
   7.480000     -2.4848573E-03
   7.500000     -2.3656334E-03
   7.520000     -2.2472001E-03
   7.540000     -2.1302949E-03
   7.560000     -2.0149760E-03
   7.580000     -1.9011168E-03
   7.600000     -1.7889814E-03
   7.620000     -1.6794252E-03
   7.640000     -1.5735761E-03
   7.660000     -1.4722586E-03
   7.680000     -1.3756271E-03
   7.700000     -1.2832925E-03
   7.720000     -1.1948274E-03
   7.740000     -1.1102378E-03
   7.760000     -1.0300272E-03
   7.780000     -9.5481699E-04
   7.800000     -8.8485325E-04
   7.820000     -8.1980997E-04
   7.840000     -7.5904845E-04
   7.860000     -7.0210773E-04
   7.880000     -6.4901699E-04
   7.900000     -6.0016947E-04
   7.920000     -5.5586989E-04
   7.940000     -5.1594106E-04
   7.960000     -4.7972816E-04
   7.980000     -4.4650561E-04
   8.000000     -4.1595197E-04
   8.020000     -3.8829329E-04
   8.040000     -3.6398586E-04
   8.060000     -3.4319246E-04
   8.080000     -3.2548528E-04
   8.100000     -3.1003126E-04
   8.120000     -2.9612108E-04
   8.140000     -2.8361779E-04
   8.160000     -2.7295755E-04
   8.180000     -2.6469413E-04
   8.200000     -2.5894918E-04
   8.220000     -2.5521018E-04
   8.240000     -2.5264017E-04
   8.260000     -2.5065173E-04
   8.280000     -2.4928569E-04
   8.300000     -2.4909369E-04
   8.320000     -2.5062286E-04
   8.340000     -2.5391963E-04
   8.360000     -2.5844836E-04
   8.380000     -2.6348152E-04
   8.400000     -2.6863944E-04
   8.420000     -2.7414263E-04
   8.440000     -2.8057938E-04
   8.460000     -2.8838724E-04
   8.480000     -2.9747313E-04
   8.500000     -3.0727626E-04
   8.520000     -3.1721202E-04
   8.540000     -3.2712685E-04
   8.560000     -3.3739398E-04
   8.580000     -3.4858045E-04
   8.600000     -3.6096910E-04
   8.620000     -3.7433131E-04
   8.640000     -3.8813159E-04
   8.660000     -4.0198604E-04
   8.680000     -4.1598835E-04
   8.700000     -4.3063570E-04
   8.720000     -4.4642275E-04
   8.740000     -4.6344817E-04
   8.760000     -4.8136429E-04
   8.780000     -4.9970910E-04
   8.800000     -5.1833951E-04
   8.820000     -5.3760066E-04
   8.840000     -5.5808888E-04
   8.860000     -5.8020657E-04
   8.880000     -6.0388265E-04
   8.900000     -6.2869256E-04
   8.920000     -6.5428083E-04
   8.940000     -6.8073272E-04
   8.960000     -7.0858718E-04
   8.980000     -7.3847966E-04
   9.000000     -7.7071233E-04
   9.020000     -8.0510974E-04
   9.040000     -8.4127975E-04
   9.060000     -8.7906176E-04
   9.080000     -9.1879000E-04
   9.100000     -9.6115330E-04
   9.120000     -1.0067709E-03
   9.140000     -1.0558448E-03
   9.160000     -1.1081835E-03
   9.180000     -1.1635834E-03
   9.200000     -1.2222530E-03
   9.220000     -1.2849215E-03
   9.240000     -1.3525373E-03
   9.260000     -1.4258006E-03
   9.280000     -1.5049234E-03
   9.300000     -1.5898251E-03
   9.320000     -1.6806128E-03
   9.340000     -1.7779588E-03
   9.360000     -1.8830610E-03
   9.380000     -1.9972157E-03
   9.400000     -2.1213505E-03
   9.420000     -2.2558987E-03
   9.440000     -2.4011226E-03
   9.460000     -2.5576251E-03
   9.480000     -2.7266289E-03
   9.500000     -2.9098052E-03
   9.520000     -3.1087848E-03
   9.540000     -3.3247583E-03
   9.560000     -3.5584858E-03
   9.580000     -3.8107084E-03
   9.600000     -4.0826141E-03
   9.620000     -4.3759807E-03
   9.640000     -4.6928781E-03
   9.660000     -5.0351736E-03
   9.680000     -5.4042400E-03
   9.700000     -5.8010919E-03
   9.720000     -6.2268130E-03
   9.740000     -6.6829128E-03
   9.760000     -7.1712984E-03
   9.780000     -7.6938835E-03
   9.800000     -8.2521578E-03
   9.820000     -8.8470457E-03
   9.840000     -9.4791660E-03
   9.860000     -1.0149226E-02
   9.880000     -1.0858189E-02
   9.900000     -1.1607054E-02
   9.920000     -1.2396375E-02
   9.940000     -1.3225941E-02
   9.960000     -1.4094834E-02
   9.980000     -1.5001813E-02
   10.00000     -1.5945667E-02
   10.02000     -1.6925195E-02
   10.04000     -1.7938755E-02
   10.06000     -1.8983724E-02
   10.08000     -2.0056244E-02
   10.10000     -2.1151470E-02
   10.12000     -2.2264024E-02
   10.14000     -2.3388319E-02
   10.16000     -2.4518354E-02
   10.18000     -2.5647122E-02
   10.20000     -2.6766028E-02
   10.22000     -2.7864695E-02
   10.24000     -2.8931262E-02
   10.26000     -2.9952861E-02
   10.28000     -3.0915808E-02
   10.30000     -3.1805303E-02
   10.32000     -3.2604840E-02
   10.34000     -3.3295680E-02
   10.36000     -3.3856846E-02
   10.38000     -3.4265455E-02
   10.40000     -3.4497205E-02
   10.42000     -3.4526527E-02
   10.44000     -3.4326337E-02
   10.46000     -3.3867668E-02
   10.48000     -3.3119507E-02
   10.50000     -3.2049097E-02
   10.52000     -3.0622583E-02
   10.54000     -2.8805630E-02
   10.56000     -2.6563793E-02
   10.58000     -2.3862632E-02
   10.60000     -2.0667840E-02
   10.62000     -1.6945729E-02
   10.64000     -1.2664081E-02
   10.66000     -7.7932011E-03
   10.68000     -2.3068392E-03
   10.70000      3.8171830E-03
   10.72000      1.0596477E-02
   10.74000      1.8043447E-02
   10.76000      2.6164329E-02
   10.78000      3.4957983E-02
   10.80000      4.4414748E-02
   10.82000      5.4515634E-02
   10.84000      6.5231837E-02
   10.86000      7.6524429E-02
   10.88000      8.8343970E-02
   10.90000      0.1006299    
   10.92000      0.1133098    
   10.94000      0.1262994    
   10.96000      0.1395025    
   10.98000      0.1528116    
   11.00000      0.1661086    
   11.02000      0.1792659    
   11.04000      0.1921469    
   11.06000      0.2046070    
   11.08000      0.2164950    
   11.10000      0.2276548    
   11.12000      0.2379273    
   11.14000      0.2471528    
   11.16000      0.2551730    
   11.18000      0.2618334    
   11.20000      0.2669852    
   11.22000      0.2704879    
   11.24000      0.2722116    
   11.26000      0.2720397    
   11.28000      0.2698711    
   11.30000      0.2656227    
   11.32000      0.2592306    
   11.34000      0.2506527    
   11.36000      0.2398696    
   11.38000      0.2268864    
   11.40000      0.2117332    
   11.42000      0.1944660    
   11.44000      0.1751663    
   11.46000      0.1539413    
   11.48000      0.1309231    
   11.50000      0.1062680    
   11.52000      8.0155209E-02
   11.54000      5.2784666E-02
   11.56000      2.4374848E-02
   11.58000     -4.8398473E-03
   11.60000     -3.4611598E-02
   11.62000     -6.4681940E-02
   11.64000     -9.4784833E-02
   11.66000     -0.1246501    
   11.68000     -0.1540070    
   11.70000     -0.1825885    
   11.72000     -0.2101337    
   11.74000     -0.2363921    
   11.76000     -0.2611254    
   11.78000     -0.2841112    
   11.80000     -0.3051458    
   11.82000     -0.3240472    
   11.84000     -0.3406575    
   11.86000     -0.3548444    
   11.88000     -0.3665025    
   11.90000     -0.3755539    
   11.92000     -0.3819487    
   11.94000     -0.3856661    
   11.96000     -0.3867142    
   11.98000     -0.3851299    
   12.00000     -0.3809772    
   12.02000     -0.3743455    
   12.04000     -0.3653479    
   12.06000     -0.3541188    
   12.08000     -0.3408130    
   12.10000     -0.3256027    
   12.12000     -0.3086753    
   12.14000     -0.2902304    
   12.16000     -0.2704760    
   12.18000     -0.2496262    
   12.20000     -0.2278979    
   12.22000     -0.2055088    
   12.24000     -0.1826749    
   12.26000     -0.1596082    
   12.28000     -0.1365134    
   12.30000     -0.1135858    
   12.32000     -9.1009147E-02
   12.34000     -6.8954155E-02
   12.36000     -4.7577713E-02
   12.38000     -2.7021810E-02
   12.40000     -7.4125105E-03
   12.42000      1.1140971E-02
   12.44000      2.8546901E-02
   12.46000      4.4731058E-02
   12.48000      5.9636176E-02
   12.50000      7.3221199E-02
   12.52000      8.5460603E-02
   12.54000      9.6343920E-02
   12.56000      0.1058752    
   12.58000      0.1140719    
   12.60000      0.1209640    
   12.62000      0.1265918    
   12.64000      0.1310050    
   12.66000      0.1342607    
   12.68000      0.1364230    
   12.70000      0.1375619    
   12.72000      0.1377518    
   12.74000      0.1370706    
   12.76000      0.1355975    
   12.78000      0.1334124    
   12.80000      0.1305946    
   12.82000      0.1272224    
   12.84000      0.1233729    
   12.86000      0.1191206    
   12.88000      0.1145372    
   12.90000      0.1096906    
   12.92000      0.1046442    
   12.94000      9.9457301E-02
   12.96000      9.4184451E-02
   12.98000      8.8875912E-02
   13.00000      8.3577380E-02
   13.02000      7.8329876E-02
   13.04000      7.3169634E-02
   13.06000      6.8128139E-02
   13.08000      6.3232265E-02
   13.10000      5.8504604E-02
   13.12000      5.3963751E-02
   13.14000      4.9624592E-02
   13.16000      4.5498576E-02
   13.18000      4.1593809E-02
   13.20000      3.7915159E-02
   13.22000      3.4464478E-02
   13.24000      3.1240953E-02
   13.26000      2.8241610E-02
   13.28000      2.5461709E-02
   13.30000      2.2895016E-02
   13.32000      2.0533871E-02
   13.34000      1.8369252E-02
   13.36000      1.6390983E-02
   13.38000      1.4588105E-02
   13.40000      1.2949347E-02
   13.42000      1.1463435E-02
   13.44000      1.0119228E-02
   13.46000      8.9056343E-03
   13.48000      7.8115868E-03
   13.50000      6.8261516E-03
   13.52000      5.9388233E-03
   13.54000      5.1398766E-03
   13.56000      4.4205817E-03
   13.58000      3.7731833E-03
   13.60000      3.1906883E-03
   13.62000      2.6666212E-03
   13.64000      2.1949247E-03
   13.66000      1.7700933E-03
   13.68000      1.3874308E-03
   13.70000      1.0432375E-03
   13.72000      7.3474285E-04
   13.74000      4.5976753E-04
   13.76000      2.1630018E-04
   13.78000      2.2437252E-06
   13.80000     -1.8451590E-04
   13.82000     -3.4580976E-04
   13.84000     -4.8293255E-04
   13.86000     -5.9669069E-04
   13.88000     -6.8777887E-04
   13.90000     -7.5723929E-04
   13.92000     -8.0667797E-04
   13.94000     -8.3808642E-04
   13.96000     -8.5342693E-04
   13.98000     -8.5432222E-04
   14.00000     -8.4209954E-04
   14.02000     -8.1813982E-04
   14.04000     -7.8422384E-04
   14.06000     -7.4256817E-04
   14.08000     -6.9550134E-04
   14.10000     -6.4503041E-04
   14.12000     -5.9263170E-04
   14.14000     -5.3940149E-04
   14.16000     -4.8640015E-04
   14.18000     -4.3486484E-04
   14.20000     -3.8609648E-04
   14.22000     -3.4110845E-04
   14.24000     -3.0033087E-04
   14.26000     -2.6361228E-04
   14.28000     -2.3051386E-04
   14.30000     -2.0065937E-04
   14.32000     -1.7387747E-04
   14.34000     -1.5005586E-04
   14.36000     -1.2885907E-04
   14.38000     -1.0955732E-04
   14.40000     -9.1114103E-05
   14.42000     -7.2482442E-05
   14.44000     -5.2918524E-05
   14.46000     -3.2124510E-05
   14.48000     -1.0158456E-05
   14.50000      1.2800583E-05
   14.52000      3.6663769E-05
   14.54000      6.1475905E-05
   14.56000      8.7257795E-05
   14.58000      1.1374724E-04
   14.60000      1.4021690E-04
   14.62000      1.6551523E-04
   14.64000      1.8833709E-04
   14.66000      2.0756529E-04
   14.68000      2.2245789E-04
   14.70000      2.3255464E-04
   14.72000      2.3738680E-04
   14.74000      2.3623681E-04
   14.76000      2.2816836E-04
   14.78000      2.1233708E-04
   14.80000      1.8836276E-04
   14.82000      1.5648524E-04
   14.84000      1.1739567E-04
   14.86000      7.1893810E-05
   14.88000      2.0653035E-05
   14.90000     -3.5731115E-05
   14.92000     -9.6480195E-05
   14.94000     -1.6040757E-04
   14.96000     -2.2593496E-04
   14.98000     -2.9134704E-04
   15.00000     -3.5508772E-04
   15.02000     -4.1588710E-04
   15.04000     -4.7266751E-04
   15.06000     -5.2436104E-04
   15.08000     -5.6982378E-04
   15.10000     -6.0792762E-04
   15.12000     -6.3775544E-04
   15.14000     -6.5875187E-04
   15.16000     -6.7073631E-04
   15.18000     -6.7380007E-04
   15.20000     -6.6818349E-04
   15.22000     -6.5421656E-04
   15.24000     -6.3233561E-04
   15.26000     -6.0313178E-04
   15.28000     -5.6737865E-04
   15.30000     -5.2601175E-04
   15.32000     -4.8006466E-04
   15.34000     -4.3058171E-04
   15.36000     -3.7853525E-04
   15.38000     -3.2477561E-04
   15.40000     -2.7003142E-04
   15.42000     -2.1495344E-04
   15.44000     -1.6016267E-04
   15.46000     -1.0625607E-04
   15.48000     -5.3752643E-05
   15.50000     -3.0135527E-06
   15.52000      4.5800531E-05
   15.54000      9.2693859E-05
   15.56000      1.3773961E-04
   15.58000      1.8098763E-04
   15.60000      2.2243297E-04
   15.62000      2.6204824E-04
   15.64000      2.9982961E-04
   15.66000      3.3579877E-04
   15.68000      3.6994831E-04
   15.70000      4.0216715E-04
   15.72000      4.3219968E-04
   15.74000      4.5966145E-04
   15.76000      4.8409007E-04
   15.78000      5.0499267E-04
   15.80000      5.2186282E-04
   15.82000      5.3417130E-04
   15.84000      5.4134947E-04
   15.86000      5.4278702E-04
   15.88000      5.3785567E-04
   15.90000      5.2596955E-04
   15.92000      5.0667516E-04
   15.94000      4.7974041E-04
   15.96000      4.4519163E-04
   15.98000      4.0326297E-04
   16.00000      3.5428585E-04
   16.02000      2.9860926E-04
   16.04000      2.3664138E-04
   16.06000      1.6901284E-04
   16.08000      9.6742806E-05
   16.10000      2.1252770E-05
   16.12000     -5.5827026E-05
   16.14000     -1.3294173E-04
   16.16000     -2.0877658E-04
   16.18000     -2.8217686E-04
   16.20000     -3.5190556E-04
   16.22000     -4.1647415E-04
   16.24000     -4.7423344E-04
   16.26000     -5.2369112E-04
   16.28000     -5.6382088E-04
   16.30000     -5.9412571E-04
   16.32000     -6.1442784E-04
   16.34000     -6.2458799E-04
   16.36000     -6.2440563E-04
   16.38000     -6.1377755E-04
   16.40000     -5.9295999E-04
   16.42000     -5.6269841E-04
   16.44000     -5.2412268E-04
   16.46000     -4.7851028E-04
   16.48000     -4.2711239E-04
   16.50000     -3.7113953E-04
   16.52000     -3.1184169E-04
   16.54000     -2.5055167E-04
   16.56000     -1.8863597E-04
   16.58000     -1.2741319E-04
   16.60000     -6.8119589E-05
   16.62000     -1.1915194E-05
   16.64000      4.0152183E-05
   16.66000      8.7268847E-05
   16.68000      1.2898451E-04
   16.70000      1.6520894E-04
   16.72000      1.9603192E-04
   16.74000      2.2150080E-04
   16.76000      2.4156572E-04
   16.78000      2.5626831E-04
   16.80000      2.6601268E-04
   16.82000      2.7164604E-04
   16.84000      2.7422310E-04
   16.86000      2.7461641E-04
   16.88000      2.7329387E-04
   16.90000      2.7045293E-04
   16.92000      2.6638206E-04