  -2.400000      0.0000000E+00
  -2.380000      0.0000000E+00
  -2.360000      0.0000000E+00
  -2.340000      0.0000000E+00
  -2.320000      0.0000000E+00
  -2.300000      0.0000000E+00
  -2.280000      0.0000000E+00
  -2.260000      0.0000000E+00
  -2.240000      0.0000000E+00
  -2.220000      0.0000000E+00
  -2.200000      0.0000000E+00
  -2.180000      0.0000000E+00
  -2.160000      0.0000000E+00
  -2.140000      0.0000000E+00
  -2.120000      0.0000000E+00
  -2.100000      0.0000000E+00
  -2.080000      0.0000000E+00
  -2.060000      0.0000000E+00
  -2.040000      0.0000000E+00
  -2.020000      0.0000000E+00
  -2.000000      0.0000000E+00
  -1.980000      0.0000000E+00
  -1.960000      0.0000000E+00
  -1.940000      0.0000000E+00
  -1.920000      0.0000000E+00
  -1.900000      0.0000000E+00
  -1.880000      0.0000000E+00
  -1.860000      0.0000000E+00
  -1.840000      0.0000000E+00
  -1.820000      0.0000000E+00
  -1.800000      0.0000000E+00
  -1.780000      0.0000000E+00
  -1.760000      0.0000000E+00
  -1.740000      0.0000000E+00
  -1.720000      0.0000000E+00
  -1.700000      0.0000000E+00
  -1.680000      0.0000000E+00
  -1.660000      0.0000000E+00
  -1.640000      0.0000000E+00
  -1.620000      0.0000000E+00
  -1.600000      0.0000000E+00
  -1.580000      0.0000000E+00
  -1.560000      0.0000000E+00
  -1.540000      0.0000000E+00
  -1.520000      0.0000000E+00
  -1.500000      0.0000000E+00
  -1.480000      0.0000000E+00
  -1.460000      0.0000000E+00
  -1.440000      0.0000000E+00
  -1.420000      0.0000000E+00
  -1.400000      0.0000000E+00
  -1.380000      0.0000000E+00
  -1.360000      0.0000000E+00
  -1.340000      0.0000000E+00
  -1.320000      0.0000000E+00
  -1.300000      0.0000000E+00
  -1.280000      0.0000000E+00
  -1.260000      0.0000000E+00
  -1.240000      0.0000000E+00
  -1.220000      0.0000000E+00
  -1.200000      0.0000000E+00
  -1.180000      0.0000000E+00
  -1.160000      0.0000000E+00
  -1.140000      0.0000000E+00
  -1.120000      0.0000000E+00
  -1.100000      0.0000000E+00
  -1.080000      0.0000000E+00
  -1.060000      0.0000000E+00
  -1.040000      0.0000000E+00
  -1.020000      0.0000000E+00
  -1.000000      0.0000000E+00
 -0.9800000      0.0000000E+00
 -0.9600000      0.0000000E+00
 -0.9400000      0.0000000E+00
 -0.9200000      0.0000000E+00
 -0.9000000      0.0000000E+00
 -0.8800000      0.0000000E+00
 -0.8600000      0.0000000E+00
 -0.8400000      0.0000000E+00
 -0.8200000      0.0000000E+00
 -0.8000000      0.0000000E+00
 -0.7800000      0.0000000E+00
 -0.7600000      0.0000000E+00
 -0.7400000      0.0000000E+00
 -0.7200000      0.0000000E+00
 -0.7000000      0.0000000E+00
 -0.6800000      0.0000000E+00
 -0.6600000      0.0000000E+00
 -0.6400000     -1.4841526E-38
 -0.6200000     -6.1463013E-38
 -0.6000000     -8.3492838E-38
 -0.5800000      3.1791404E-38
 -0.5600000      2.5734824E-37
 -0.5400000      3.3426345E-37
 -0.5200000     -4.4796889E-37
 -0.5000000     -2.0319791E-36
 -0.4800000     -2.8701330E-36
 -0.4600000     -2.6426106E-37
 -0.4400000      5.2807487E-36
 -0.4200000      7.5375325E-36
 -0.4000000     -3.3238434E-36
 -0.3800000     -2.7449779E-35
 -0.3600000     -3.8383940E-35
 -0.3400000     -1.5942552E-36
 -0.3200000      8.4159799E-35
 -0.3000000      1.4864965E-34
 -0.2800000      6.4219702E-35
 -0.2600000     -2.3338228E-34
 -0.2400000     -5.6518985E-34
 -0.2200000     -4.6633202E-34
 -0.2000000      4.7891490E-34
 -0.1800000      1.9376941E-33
 -0.1600000      2.3605317E-33
 -0.1400000     -2.3918452E-34
 -0.1200000     -5.8388175E-33
 -0.1000000     -9.8764705E-33
 -7.9999998E-02 -4.3536821E-33
 -5.9999999E-02  1.4539114E-32
 -3.9999999E-02  3.5585123E-32
 -2.0000000E-02  3.0647107E-32
  0.0000000E+00 -2.4654384E-32
  2.0000000E-02 -1.1097479E-31
  3.9999999E-02 -1.4139024E-31
  5.9999999E-02 -7.0596466E-33
  7.9999998E-02  2.9286344E-31
  0.1000000      5.2649640E-31
  0.1200000      2.9279806E-31
  0.1400000     -6.0598088E-31
  0.1600000     -1.6648160E-30
  0.1800000     -1.6077817E-30
  0.2000000      6.8904117E-31
  0.2200000      4.5000357E-30
  0.2400000      6.2891272E-30
  0.2600000      1.5621698E-30
  0.2800000     -1.0082891E-29
  0.3000000     -2.0261391E-29
  0.3200000     -1.4111716E-29
  0.3400000      1.6507984E-29
  0.3600000      5.5732633E-29
  0.3800000      6.1128643E-29
  0.4000000     -6.6484727E-30
  0.4200000     -1.3008017E-28
  0.4400000     -2.0402438E-28
  0.4600000     -8.8996097E-29
  0.4800000      2.4286070E-28
  0.5000000      5.7148919E-28
  0.5200000      4.8408952E-28
  0.5400000     -2.7846015E-28
  0.5600000     -1.3644812E-27
  0.5800000     -1.7195292E-27
  0.6000000     -2.8619283E-28
  0.6200000      2.7014297E-27
  0.6400000      4.9259803E-27
  0.6600000      3.0828280E-27
  0.6800000     -3.9323549E-27
  0.7000000     -1.1924654E-26
  0.7200000     -1.2200350E-26
  0.7400000      1.6247600E-27
  0.7600000      2.4271515E-26
  0.7800000      3.6064480E-26
  0.8000000      1.5082911E-26
  0.8200000     -3.8943422E-26
  0.8400000     -8.8288900E-26
  0.8600000     -7.3032823E-26
  0.8800000      3.6064653E-26
  0.9000000      1.8218050E-25
  0.9200000      2.2644654E-25
  0.9400000      4.8233510E-26
  0.9600000     -3.0613500E-25
  0.9800000     -5.6183832E-25
   1.000000     -3.6930176E-25
   1.020000      3.5631962E-25
   1.040000      1.1674789E-24
   1.060000      1.2328838E-24
   1.080000      4.5997181E-27
   1.100000     -2.0038357E-24
   1.120000     -3.1131271E-24
   1.140000     -1.5780614E-24
   1.160000      2.5703185E-24
   1.180000      6.4882275E-24
   1.200000      5.8861795E-24
   1.220000     -1.2539333E-24
   1.240000     -1.1219763E-23
   1.260000     -1.5198634E-23
   1.280000     -5.6507069E-24
   1.300000      1.5081077E-23
   1.320000      3.1737187E-23
   1.340000      2.4919021E-23
   1.360000     -1.1074115E-23
   1.380000     -5.5024367E-23
   1.400000     -6.6323960E-23
   1.420000     -1.6377661E-23
   1.440000      7.5985525E-23
   1.460000      1.3927936E-22
   1.480000      9.5001080E-23
   1.500000     -6.6610317E-23
   1.520000     -2.4241037E-22
   1.540000     -2.6400266E-22
   1.560000     -3.4260299E-23
   1.580000      3.4107639E-22
   1.600000      5.6075550E-22
   1.620000      3.3343277E-22
   1.640000     -3.2922033E-22
   1.660000     -9.8125290E-22
   1.680000     -9.7861485E-22
   1.700000     -2.0187489E-23
   1.720000      1.3987826E-21
   1.740000      2.1068009E-21
   1.760000      1.0930524E-21
   1.780000     -1.4343417E-21
   1.800000     -3.7040990E-21
   1.820000     -3.4068625E-21
   1.840000      3.0157158E-22
   1.860000      5.3377755E-21
   1.880000      7.4290133E-21
   1.900000      3.2951245E-21
   1.920000     -5.7556669E-21
   1.940000     -1.3126893E-20
   1.960000     -1.1047903E-20
   1.980000      2.4366566E-21
   2.000000      1.9154238E-20
   2.020000      2.4462758E-20
   2.040000      8.6575284E-21
   2.060000     -2.1700242E-20
   2.080000     -4.3507429E-20
   2.100000     -3.2644360E-20
   2.120000      1.3328453E-20
   2.140000      6.4335420E-20
   2.160000      7.3930844E-20
   2.180000      1.7395114E-20
   2.200000     -7.6424639E-20
   2.220000     -1.3255511E-19
   2.240000     -8.4284470E-20
   2.260000      6.0269756E-20
   2.280000      1.9886837E-19
   2.300000      1.9885704E-19
   2.320000      1.2568608E-20
   2.340000     -2.4790394E-19
   2.360000     -3.6244860E-19
   2.380000     -1.7533466E-19
   2.400000      2.3565055E-19
   2.420000      5.5626697E-19
   2.440000      4.5703145E-19
   2.460000     -9.9545190E-20
   2.480000     -7.3149732E-19
   2.500000     -8.6870725E-19
   2.520000     -2.3485090E-19
   2.540000      8.0228263E-19
   2.560000      1.3865849E-18
   2.580000      8.3977196E-19
   2.600000     -6.4511283E-19
   2.620000     -1.9358322E-18
   2.640000     -1.7654336E-18
   2.660000      1.0645319E-19
   2.680000      2.3801154E-18
   2.700000      3.0214478E-18
   2.720000      9.8771952E-19
   2.740000     -2.5146582E-18
   2.760000     -4.5651978E-18
   2.780000     -2.8364282E-18
   2.800000      2.0401121E-18
   2.820000      6.2796219E-18
   2.840000      5.6868812E-18
   2.860000     -4.7956044E-19
   2.880000     -7.8791245E-18
   2.900000     -9.8262472E-18
   2.920000     -2.9677615E-18
   2.940000      8.6579729E-18
   2.960000      1.5408350E-17
   2.980000      9.5396639E-18
   3.000000     -7.0476169E-18
   3.020000     -2.1927162E-17
   3.040000     -2.0742487E-17
   3.060000      1.0898751E-19
   3.080000      2.7187900E-17
   3.100000      3.7497930E-17
   3.120000      1.6632278E-17
   3.140000     -2.5834616E-17
   3.160000     -5.8118855E-17
   3.180000     -4.8172620E-17
   3.200000      8.0361018E-18
   3.220000      7.4857093E-17
   3.240000      9.6570696E-17
   3.260000      4.0030585E-17
   3.280000     -6.9817644E-17
   3.300000     -1.5398461E-16
   3.320000     -1.3110528E-16
   3.340000      1.3208799E-17
   3.360000      1.9307052E-16
   3.380000      2.6450470E-16
   3.400000      1.3070344E-16
   3.420000     -1.5958590E-16
   3.440000     -4.0698385E-16
   3.460000     -3.8433945E-16
   3.480000     -2.3584777E-17
   3.500000      4.7372515E-16
   3.520000      7.2304802E-16
   3.540000      4.3039650E-16
   3.560000     -3.2388015E-16
   3.580000     -1.0351786E-15
   3.600000     -1.0779756E-15
   3.620000     -2.1052293E-16
   3.640000      1.0969153E-15
   3.660000      1.8528420E-15
   3.680000      1.2472143E-15
   3.700000     -5.9381478E-16
   3.720000     -2.4456734E-15
   3.740000     -2.7304268E-15
   3.760000     -7.7865547E-16
   3.780000      2.3464121E-15
   3.800000      4.2992258E-15
   3.820000      3.1272759E-15
   3.840000     -9.5896517E-16
   3.860000     -5.2266532E-15
   3.880000     -6.1327434E-15
   3.900000     -2.1386589E-15
   3.920000      4.5247357E-15
   3.940000      8.8918681E-15
   3.960000      6.8415584E-15
   3.980000     -1.2665991E-15
   4.000000     -9.9654985E-15
   4.020000     -1.2209534E-14
   4.040000     -4.9181321E-15
   4.060000      7.7231617E-15
   4.080000      1.6379007E-14
   4.100000      1.3317298E-14
   4.120000     -9.8488999E-16
   4.140000     -1.6857877E-14
   4.160000     -2.1804182E-14
   4.180000     -1.0162256E-14
   4.200000      1.1299482E-14
   4.220000      2.6988038E-14
   4.240000      2.3679201E-14
   4.260000      1.3460875E-15
   4.280000     -2.5068333E-14
   4.300000     -3.5479662E-14
   4.320000     -1.9738099E-14
   4.340000      1.3262882E-14
   4.360000      4.0217304E-14
   4.380000      3.9686373E-14
   4.400000      8.7357312E-15
   4.420000     -3.2740724E-14
   4.440000     -5.4535125E-14
   4.460000     -3.7740163E-14
   4.480000      9.7836329E-15
   4.500000      5.6187145E-14
   4.520000      6.6484436E-14
   4.540000      2.8111946E-14
   4.560000     -3.6924013E-14
   4.580000     -8.3712930E-14
   4.600000     -7.4437249E-14
   4.620000     -7.4077868E-15
   4.640000      7.6095529E-14
   4.660000      1.1560657E-13
   4.680000      7.3512384E-14
   4.700000     -3.2507691E-14
   4.720000     -1.3264711E-13
   4.740000     -1.4836053E-13
   4.760000     -5.1180753E-14
   4.780000      1.0501579E-13
   4.800000      2.0912345E-13
   4.820000      1.6828421E-13
   4.840000     -1.4696266E-14
   4.860000     -2.2321172E-13
   4.880000     -2.9584988E-13
   4.900000     -1.4642892E-13
   4.920000      1.5071882E-13
   4.940000      3.8708620E-13
   4.960000      3.6067552E-13
   4.980000      4.0652015E-14
   5.000000     -3.7343598E-13
   5.020000     -5.6778654E-13
   5.040000     -3.4599941E-13
   5.060000      1.9035054E-13
   5.080000      6.6919029E-13
   5.100000      6.9944679E-13
   5.120000      1.8207648E-13
   5.140000     -5.6159737E-13
   5.160000     -9.7887920E-13
   5.180000     -6.9065896E-13
   5.200000      1.8048630E-13
   5.220000      1.0344439E-12
   5.240000      1.2014145E-12
   5.260000      4.6049552E-13
   5.280000     -7.2939067E-13
   5.300000     -1.5054070E-12
   5.320000     -1.2254775E-12
   5.340000      1.0987336E-14
   5.360000      1.3649342E-12
   5.380000      1.8308018E-12
   5.400000      9.8668762E-13
   5.420000     -6.4300323E-13
   5.440000     -1.9176858E-12
   5.460000     -1.8937152E-12
   5.480000     -5.2887458E-13
   5.500000      1.2559028E-12
   5.520000      2.2210510E-12
   5.540000      1.6916135E-12
   5.560000      3.0483401E-14
   5.580000     -1.6362198E-12
   5.600000     -2.2191331E-12
   5.620000     -1.3941974E-12
   5.640000      2.4581208E-13
   5.660000      1.6623046E-12
   5.680000      2.0626255E-12
   5.700000      1.3188146E-12
   5.720000     -9.1756138E-14
   5.740000     -1.4488731E-12
   5.760000     -2.1354062E-12
   5.780000     -1.8081138E-12
   5.800000     -4.7266742E-13
   5.820000      1.4230435E-12
   5.840000      2.9623667E-12
   5.860000      3.0493646E-12
   5.880000      1.1007138E-12
   5.900000     -2.2287114E-12
   5.920000     -4.9795159E-12
   5.940000     -4.9107910E-12
   5.960000     -1.1976981E-12
   5.980000      4.4184816E-12
   6.000000      8.2162974E-12
   6.020000      6.8764387E-12
   6.040000      1.9380729E-13
   6.060000     -8.0220969E-12
   6.080000     -1.2017541E-11
   6.100000     -8.1147476E-12
   6.120000      2.1263865E-12
   6.140000      1.2240725E-11
   6.160000      1.4984200E-11
   6.180000      7.6126388E-12
   6.200000     -5.5850472E-12
   6.220000     -1.5741011E-11
   6.240000     -1.5495523E-11
   6.260000     -4.4612096E-12
   6.280000      1.0060328E-11
   6.300000      1.7935341E-11
   6.320000      1.3330223E-11
   6.340000     -1.0018738E-12
   6.360000     -1.5445416E-11
   6.380000     -2.0081837E-11
   6.400000     -1.1430508E-11
   6.420000      5.3060516E-12
   6.440000      1.9821459E-11
   6.460000      2.3348495E-11
   6.480000      1.3811564E-11
   6.500000     -3.5067919E-12
   6.520000     -1.9455354E-11
   6.540000     -2.5929873E-11
   6.560000     -1.9493317E-11
   6.580000     -2.6307157E-12
   6.600000      1.7061217E-11
   6.620000      2.9384089E-11
   6.640000      2.5772858E-11
   6.660000      4.5612134E-12
   6.680000     -2.5399105E-11
   6.700000     -4.6610989E-11
   6.720000     -4.1977258E-11
   6.740000     -7.2464257E-12
   6.760000      4.1801673E-11
   6.780000      7.5257647E-11
   6.800000      6.7683158E-11
   6.820000      1.8208206E-11
   6.840000     -4.3663097E-11
   6.860000     -7.4774464E-11
   6.880000     -4.9316631E-11
   6.900000      1.7728602E-11
   6.920000      7.5044818E-11
   6.940000      6.9121930E-11
   6.960000     -1.3757385E-11
   6.980000     -1.2963859E-10
   7.000000     -2.0101366E-10
   7.020000     -1.7013374E-10
   7.040000     -4.3817470E-11
   7.060000      1.0604848E-10
   7.080000      1.9141080E-10
   7.100000      1.7308391E-10
   7.120000      9.2574053E-11
   7.140000      4.2855160E-11
   7.160000      9.5889602E-11
   7.180000      2.4020558E-10
   7.200000      3.7803202E-10
   7.220000      3.8834591E-10
   7.240000      2.1135278E-10
   7.260000     -1.0854931E-10
   7.280000     -4.5389370E-10
   7.300000     -7.1478518E-10
   7.320000     -8.5553076E-10
   7.340000     -9.1521385E-10
   7.360000     -9.4432251E-10
   7.380000     -9.3295494E-10
   7.400000     -7.9415041E-10
   7.420000     -4.2013990E-10
   7.440000      2.3332417E-10
   7.460000      1.1056833E-09
   7.480000      2.0696431E-09
   7.500000      3.0159093E-09
   7.520000      3.9074939E-09
   7.540000      4.7480500E-09
   7.560000      5.4826055E-09
   7.580000      5.9137983E-09
   7.600000      5.7132112E-09
   7.620000      4.5313562E-09
   7.640000      2.1214164E-09
   7.660000     -1.6313935E-09
   7.680000     -6.8123782E-09
   7.700000     -1.3636708E-08
   7.720000     -2.2530815E-08
   7.740000     -3.4054320E-08
   7.760000     -4.8714806E-08
   7.780000     -6.6835206E-08
   7.800000     -8.8616858E-08
   7.820000     -1.1439853E-07
   7.840000     -1.4494950E-07
   7.860000     -1.8158866E-07
   7.880000     -2.2604361E-07
   7.900000     -2.8016990E-07
   7.920000     -3.4577806E-07
   7.940000     -4.2475037E-07
   7.960000     -5.1941083E-07
   7.980000     -6.3290776E-07
   8.000000     -7.6935152E-07
   8.020000     -9.3364253E-07
   8.040000     -1.1311845E-06
   8.060000     -1.3677892E-06
   8.080000     -1.6499432E-06
   8.100000     -1.9853164E-06
   8.120000     -2.3831992E-06
   8.140000     -2.8546146E-06
   8.160000     -3.4121244E-06
   8.180000     -4.0696368E-06
   8.200000     -4.8425477E-06
   8.220000     -5.7482871E-06
   8.240000     -6.8069990E-06
   8.260000     -8.0419577E-06
   8.280000     -9.4795187E-06
   8.300000     -1.1148818E-05
   8.320000     -1.3081686E-05
   8.340000     -1.5313093E-05
   8.360000     -1.7882023E-05
   8.380000     -2.0832273E-05
   8.400000     -2.4212681E-05
   8.420000     -2.8076709E-05
   8.440000     -3.2481883E-05
   8.460000     -3.7489674E-05
   8.480000     -4.3166114E-05
   8.500000     -4.9582763E-05
   8.520000     -5.6817142E-05
   8.540000     -6.4952299E-05
   8.560000     -7.4075491E-05
   8.580000     -8.4276908E-05
   8.600000     -9.5649149E-05
   8.620000     -1.0828772E-04
   8.640000     -1.2229173E-04
   8.660000     -1.3776390E-04
   8.680000     -1.5480888E-04
   8.700000     -1.7353061E-04
   8.720000     -1.9402950E-04
   8.740000     -2.1640069E-04
   8.760000     -2.4073350E-04
   8.780000     -2.6711103E-04
   8.800000     -2.9560857E-04
   8.820000     -3.2629064E-04
   8.840000     -3.5920693E-04
   8.860000     -3.9438880E-04
   8.880000     -4.3184723E-04
   8.900000     -4.7157149E-04
   8.920000     -5.1352731E-04
   8.940000     -5.5765384E-04
   8.960000     -6.0385949E-04
   8.980000     -6.5201742E-04
   9.000000     -7.0196297E-04
   9.020000     -7.5349229E-04
   9.040000     -8.0636208E-04
   9.060000     -8.6028787E-04
   9.080000     -9.1494172E-04
   9.100000     -9.6994912E-04
   9.120000     -1.0248882E-03
   9.140000     -1.0792911E-03
   9.160000     -1.1326472E-03
   9.180000     -1.1844063E-03
   9.200000     -1.2339808E-03
   9.220000     -1.2807442E-03
   9.240000     -1.3240338E-03
   9.260000     -1.3631530E-03
   9.280000     -1.3973821E-03
   9.300000     -1.4259889E-03
   9.320000     -1.4482389E-03
   9.340000     -1.4634010E-03
   9.360000     -1.4707515E-03
   9.380000     -1.4695782E-03
   9.400000     -1.4591898E-03
   9.420000     -1.4389316E-03
   9.440000     -1.4082040E-03
   9.460000     -1.3664770E-03
   9.480000     -1.3132978E-03
   9.500000     -1.2482934E-03
   9.520000     -1.1711743E-03
   9.540000     -1.0817432E-03
   9.560000     -9.7990967E-04
   9.580000     -8.6570776E-04
   9.600000     -7.3930540E-04
   9.620000     -6.0100638E-04
   9.640000     -4.5124578E-04
   9.660000     -2.9058542E-04
   9.680000     -1.1971488E-04
   9.700000      6.0542567E-05
   9.720000      2.4922442E-04
   9.740000      4.4523121E-04
   9.760000      6.4733846E-04
   9.780000      8.5421483E-04
   9.800000      1.0644395E-03
   9.820000      1.2765136E-03
   9.840000      1.4888668E-03
   9.860000      1.6998671E-03
   9.880000      1.9078373E-03
   9.900000      2.1110792E-03
   9.920000      2.3078970E-03
   9.940000      2.4966190E-03
   9.960000      2.6756099E-03
   9.980000      2.8432840E-03
   10.00000      2.9981243E-03
   10.02000      3.1387084E-03
   10.04000      3.2637340E-03
   10.06000      3.3720417E-03
   10.08000      3.4626201E-03
   10.10000      3.5346095E-03
   10.12000      3.5873007E-03
   10.14000      3.6201498E-03
   10.16000      3.6327988E-03
   10.18000      3.6250937E-03
   10.20000      3.5970910E-03
   10.22000      3.5490410E-03
   10.24000      3.4813646E-03
   10.26000      3.3946382E-03
   10.28000      3.2895927E-03
   10.30000      3.1671268E-03
   10.32000      3.0283146E-03
   10.34000      2.8743928E-03
   10.36000      2.7067263E-03
   10.38000      2.5267648E-03
   10.40000      2.3360131E-03
   10.42000      2.1360226E-03
   10.44000      1.9283993E-03
   10.46000      1.7148085E-03
   10.48000      1.4969567E-03
   10.50000      1.2765512E-03
   10.52000      1.0552530E-03
   10.54000      8.3464547E-04
   10.56000      6.1623054E-04
   10.58000      4.0144249E-04
   10.60000      1.9165798E-04
   10.62000     -1.1816462E-05
   10.64000     -2.0777597E-04
   10.66000     -3.9515077E-04
   10.68000     -5.7302101E-04
   10.70000     -7.4060616E-04
   10.72000     -8.9724298E-04
   10.74000     -1.0423731E-03
   10.76000     -1.1755510E-03
   10.78000     -1.2964646E-03
   10.80000     -1.4049483E-03
   10.82000     -1.5009738E-03
   10.84000     -1.5846206E-03
   10.86000     -1.6560489E-03
   10.88000     -1.7154911E-03
   10.90000     -1.7632638E-03
   10.92000     -1.7997856E-03
   10.94000     -1.8255730E-03
   10.96000     -1.8412109E-03
   10.98000     -1.8473098E-03
   11.00000     -1.8444798E-03
   11.02000     -1.8333363E-03
   11.04000     -1.8145291E-03
   11.06000     -1.7887639E-03
   11.08000     -1.7567908E-03
   11.10000     -1.7193567E-03
   11.12000     -1.6771563E-03
   11.14000     -1.6308108E-03
   11.16000     -1.5808947E-03
   11.18000     -1.5279847E-03
   11.20000     -1.4726908E-03
   11.22000     -1.4156402E-03
   11.24000     -1.3574194E-03
   11.26000     -1.2985194E-03
   11.28000     -1.2393228E-03
   11.30000     -1.1801434E-03
   11.32000     -1.1212905E-03
   11.34000     -1.0631052E-03
   11.36000     -1.0059447E-03
   11.38000     -9.5012435E-04
   11.40000     -8.9586579E-04
   11.42000     -8.4329001E-04
   11.44000     -7.9246348E-04
   11.46000     -7.4345921E-04
   11.48000     -6.9638778E-04
   11.50000     -6.5137621E-04
   11.52000     -6.0851441E-04
   11.54000     -5.6781591E-04
   11.56000     -5.2922528E-04
   11.58000     -4.9266615E-04
   11.60000     -4.5809115E-04
   11.62000     -4.2549337E-04
   11.64000     -3.9487242E-04
   11.66000     -3.6618573E-04
   11.68000     -3.3933020E-04
   11.70000     -3.1417201E-04
   11.72000     -2.9060131E-04
   11.74000     -2.6856593E-04
   11.76000     -2.4805291E-04
   11.78000     -2.2903203E-04
   11.80000     -2.1140804E-04
   11.82000     -1.9502547E-04
   11.84000     -1.7972692E-04
   11.86000     -1.6542069E-04
   11.88000     -1.5210072E-04
   11.90000     -1.3979900E-04
   11.92000     -1.2850379E-04
   11.94000     -1.1810892E-04
   11.96000     -1.0843830E-04
   11.98000     -9.9331446E-05
   12.00000     -9.0726047E-05
   12.02000     -8.2672006E-05
   12.04000     -7.5261923E-05
   12.06000     -6.8528017E-05
   12.08000     -6.2383595E-05
   12.10000     -5.6655321E-05
   12.12000     -5.1184095E-05
   12.14000     -4.5919020E-05
   12.16000     -4.0933188E-05
   12.18000     -3.6348825E-05
   12.20000     -3.2228174E-05
   12.22000     -2.8512446E-05
   12.24000     -2.5053900E-05
   12.26000     -2.1714819E-05
   12.28000     -1.8456823E-05
   12.30000     -1.5353418E-05
   12.32000     -1.2519541E-05
   12.34000     -1.0015527E-05
   12.36000     -7.8001676E-06
   12.38000     -5.7657007E-06
   12.40000     -3.8218836E-06
   12.42000     -1.9596362E-06
   12.44000     -2.4519804E-07
   12.46000      1.2453576E-06
   12.48000      2.4933897E-06
   12.50000      3.5507387E-06
   12.52000      4.4909189E-06
   12.54000      5.3437939E-06
   12.56000      6.0718717E-06
   12.58000      6.6088173E-06
   12.60000      6.9255902E-06
   12.62000      7.0644123E-06
   12.64000      7.1077784E-06
   12.66000      7.1064815E-06
   12.68000      7.0288584E-06
   12.70000      6.7792494E-06
   12.72000      6.2766876E-06
   12.74000      5.5315918E-06
   12.76000      4.6541741E-06
   12.78000      3.7799887E-06
   12.80000      2.9660466E-06
   12.82000      2.1400219E-06
   12.84000      1.1488286E-06
   12.86000     -1.2359257E-07
   12.88000     -1.6570884E-06
   12.90000     -3.2941252E-06
   12.92000     -4.8443926E-06
   12.94000     -6.2210042E-06
   12.96000     -7.5056087E-06
   12.98000     -8.8894576E-06
   13.00000     -1.0530131E-05
   13.02000     -1.2429186E-05
   13.04000     -1.4423113E-05
   13.06000     -1.6296337E-05
   13.08000     -1.7933226E-05
   13.10000     -1.9396222E-05
   13.12000     -2.0872625E-05
   13.14000     -2.2531100E-05
   13.16000     -2.4395889E-05
   13.18000     -2.6331192E-05
   13.20000     -2.8143475E-05
   13.22000     -2.9721590E-05
   13.24000     -3.1109634E-05
   13.26000     -3.2462704E-05
   13.28000     -3.3925440E-05
   13.30000     -3.5528246E-05
   13.32000     -3.7176436E-05
   13.34000     -3.8732487E-05
   13.36000     -4.0121846E-05
   13.38000     -4.1380834E-05
   13.40000     -4.2616404E-05
   13.42000     -4.3917484E-05
   13.44000     -4.5291283E-05
   13.46000     -4.6671412E-05
   13.48000     -4.7983856E-05
   13.50000     -4.9211711E-05
   13.52000     -5.0405513E-05
   13.54000     -5.1634797E-05
   13.56000     -5.2925923E-05
   13.58000     -5.4240976E-05
   13.60000     -5.5515608E-05
   13.62000     -5.6722252E-05
   13.64000     -5.7902551E-05
   13.66000     -5.9138372E-05
   13.68000     -6.0483122E-05
   13.70000     -6.1910905E-05
   13.72000     -6.3329309E-05
   13.74000     -6.4650594E-05
   13.76000     -6.5866290E-05
   13.78000     -6.7063404E-05
   13.80000     -6.8364126E-05
   13.82000     -6.9831935E-05
   13.84000     -7.1416645E-05
   13.86000     -7.2984556E-05
   13.88000     -7.4415082E-05
   13.90000     -7.5692704E-05
   13.92000     -7.6923701E-05
   13.94000     -7.8262310E-05
   13.96000     -7.9799232E-05
   13.98000     -8.1494996E-05
   14.00000     -8.3208404E-05
   14.02000     -8.4799700E-05
   14.04000     -8.6232685E-05
   14.06000     -8.7600667E-05
   14.08000     -8.9057779E-05
   14.10000     -9.0707057E-05
   14.12000     -9.2527720E-05
   14.14000     -9.4394469E-05
   14.16000     -9.6173047E-05
   14.18000     -9.7820754E-05
   14.20000     -9.9418350E-05
   14.22000     -1.0111135E-04
   14.24000     -1.0300553E-04
   14.26000     -1.0509400E-04
   14.28000     -1.0726845E-04
   14.30000     -1.0940419E-04
   14.32000     -1.1145500E-04
   14.34000     -1.1348840E-04
   14.36000     -1.1563731E-04
   14.38000     -1.1800631E-04
   14.40000     -1.2060245E-04
   14.42000     -1.2334029E-04
   14.44000     -1.2611422E-04
   14.46000     -1.2888169E-04
   14.48000     -1.3169495E-04
   14.50000     -1.3466041E-04
   14.52000     -1.3785956E-04
   14.54000     -1.4129323E-04
   14.56000     -1.4489111E-04
   14.58000     -1.4857577E-04
   14.60000     -1.5232965E-04
   14.62000     -1.5621084E-04
   14.64000     -1.6030591E-04
   14.66000     -1.6465777E-04
   14.68000     -1.6922691E-04
   14.70000     -1.7391825E-04
   14.72000     -1.7865411E-04
   14.74000     -1.8343620E-04
   14.76000     -1.8834675E-04
   14.78000     -1.9348611E-04
   14.80000     -1.9889402E-04
   14.82000     -2.0451644E-04
   14.84000     -2.1024529E-04
   14.86000     -2.1600172E-04
   14.88000     -2.2179843E-04
   14.90000     -2.2773141E-04
   14.92000     -2.3390609E-04
   14.94000     -2.4035586E-04
   14.96000     -2.4701832E-04
   14.98000     -2.5379047E-04
   15.00000     -2.6062151E-04
   15.02000     -2.6756895E-04
   15.04000     -2.7476958E-04
   15.06000     -2.8234426E-04
   15.08000     -2.9030876E-04
   15.10000     -2.9856438E-04
   15.12000     -3.0698150E-04
   15.14000     -3.1551623E-04
   15.16000     -3.2426961E-04
   15.18000     -3.3343950E-04
   15.20000     -3.4319595E-04
   15.22000     -3.5357341E-04
   15.24000     -3.6446427E-04
   15.26000     -3.7572280E-04
   15.28000     -3.8730365E-04
   15.30000     -3.9932941E-04
   15.32000     -4.1203428E-04
   15.34000     -4.2562486E-04
   15.36000     -4.4016569E-04
   15.38000     -4.5557838E-04
   15.40000     -4.7175845E-04
   15.42000     -4.8872072E-04
   15.44000     -5.0666102E-04
   15.46000     -5.2588404E-04
   15.48000     -5.4665114E-04
   15.50000     -5.6906487E-04
   15.52000     -5.9307943E-04
   15.54000     -6.1863259E-04
   15.56000     -6.4579846E-04
   15.58000     -6.7484542E-04
   15.60000     -7.0615433E-04
   15.62000     -7.4005924E-04
   15.64000     -7.7673199E-04
   15.66000     -8.1619731E-04
   15.68000     -8.5846585E-04
   15.70000     -9.0368098E-04
   15.72000     -9.5216662E-04
   15.74000     -1.0043426E-03
   15.76000     -1.0605737E-03
   15.78000     -1.1210740E-03
   15.80000     -1.1859363E-03
   15.82000     -1.2552643E-03
   15.84000     -1.3292953E-03
   15.86000     -1.4084158E-03
   15.88000     -1.4930544E-03
   15.90000     -1.5835366E-03
   15.92000     -1.6800172E-03
   15.94000     -1.7825422E-03
   15.96000     -1.8911895E-03
   15.98000     -2.0061696E-03
   16.00000     -2.1278011E-03
   16.02000     -2.2563760E-03
   16.04000     -2.3920145E-03
   16.06000     -2.5346288E-03
   16.08000     -2.6840153E-03
   16.10000     -2.8400039E-03
   16.12000     -3.0025353E-03
   16.14000     -3.1716020E-03
   16.16000     -3.3470956E-03
   16.18000     -3.5286809E-03
   16.20000     -3.7158008E-03
   16.22000     -3.9078114E-03
   16.24000     -4.1041430E-03
   16.26000     -4.3043592E-03
   16.28000     -4.5080706E-03
   16.30000     -4.7147698E-03
   16.32000     -4.9237264E-03
   16.34000     -5.1340354E-03
   16.36000     -5.3447844E-03
   16.38000     -5.5552255E-03
   16.40000     -5.7648206E-03
   16.42000     -5.9731365E-03
   16.44000     -6.1796727E-03
   16.46000     -6.3837771E-03
   16.48000     -6.5847118E-03
   16.50000     -6.7818388E-03
   16.52000     -6.9747791E-03
   16.54000     -7.1634357E-03
   16.56000     -7.3478562E-03
   16.58000     -7.5280601E-03
   16.60000     -7.7039585E-03
   16.62000     -7.8754425E-03
   16.64000     -8.0425618E-03
   16.66000     -8.2056653E-03
   16.68000     -8.3653862E-03
   16.70000     -8.5224854E-03
   16.72000     -8.6776819E-03
   16.74000     -8.8315969E-03
   16.76000     -8.9848507E-03
   16.78000     -9.1382246E-03
   16.80000     -9.2927543E-03
   16.82000     -9.4496747E-03
   16.84000     -9.6102618E-03
   16.86000     -9.7756758E-03
   16.88000     -9.9469321E-03
   16.90000     -1.0124981E-02
   16.92000     -1.0310820E-02