  -2.400000      0.0000000E+00
  -2.380000      0.0000000E+00
  -2.360000      0.0000000E+00
  -2.340000      0.0000000E+00
  -2.320000      0.0000000E+00
  -2.300000      0.0000000E+00
  -2.280000      0.0000000E+00
  -2.260000      0.0000000E+00
  -2.240000      0.0000000E+00
  -2.220000      0.0000000E+00
  -2.200000      0.0000000E+00
  -2.180000      0.0000000E+00
  -2.160000      0.0000000E+00
  -2.140000      0.0000000E+00
  -2.120000      0.0000000E+00
  -2.100000      0.0000000E+00
  -2.080000      0.0000000E+00
  -2.060000      0.0000000E+00
  -2.040000      0.0000000E+00
  -2.020000      0.0000000E+00
  -2.000000      0.0000000E+00
  -1.980000      0.0000000E+00
  -1.960000      0.0000000E+00
  -1.940000      0.0000000E+00
  -1.920000      0.0000000E+00
  -1.900000      0.0000000E+00
  -1.880000      0.0000000E+00
  -1.860000      0.0000000E+00
  -1.840000      0.0000000E+00
  -1.820000      0.0000000E+00
  -1.800000      0.0000000E+00
  -1.780000      0.0000000E+00
  -1.760000      0.0000000E+00
  -1.740000      0.0000000E+00
  -1.720000      0.0000000E+00
  -1.700000      0.0000000E+00
  -1.680000      0.0000000E+00
  -1.660000      0.0000000E+00
  -1.640000      0.0000000E+00
  -1.620000      0.0000000E+00
  -1.600000      0.0000000E+00
  -1.580000      0.0000000E+00
  -1.560000      0.0000000E+00
  -1.540000      0.0000000E+00
  -1.520000      0.0000000E+00
  -1.500000      0.0000000E+00
  -1.480000      0.0000000E+00
  -1.460000      0.0000000E+00
  -1.440000      0.0000000E+00
  -1.420000      0.0000000E+00
  -1.400000      0.0000000E+00
  -1.380000      0.0000000E+00
  -1.360000      0.0000000E+00
  -1.340000      0.0000000E+00
  -1.320000      0.0000000E+00
  -1.300000      0.0000000E+00
  -1.280000      0.0000000E+00
  -1.260000      0.0000000E+00
  -1.240000      0.0000000E+00
  -1.220000      0.0000000E+00
  -1.200000      0.0000000E+00
  -1.180000      0.0000000E+00
  -1.160000      0.0000000E+00
  -1.140000      0.0000000E+00
  -1.120000      0.0000000E+00
  -1.100000      0.0000000E+00
  -1.080000      0.0000000E+00
  -1.060000      0.0000000E+00
  -1.040000      0.0000000E+00
  -1.020000      0.0000000E+00
  -1.000000      0.0000000E+00
 -0.9800000      0.0000000E+00
 -0.9600000      0.0000000E+00
 -0.9400000      0.0000000E+00
 -0.9200000      0.0000000E+00
 -0.9000000      0.0000000E+00
 -0.8800000      0.0000000E+00
 -0.8600000      0.0000000E+00
 -0.8400000      0.0000000E+00
 -0.8200000      0.0000000E+00
 -0.8000000      0.0000000E+00
 -0.7800000      0.0000000E+00
 -0.7600000      0.0000000E+00
 -0.7400000      0.0000000E+00
 -0.7200000      0.0000000E+00
 -0.7000000      0.0000000E+00
 -0.6800000      0.0000000E+00
 -0.6600000      0.0000000E+00
 -0.6400000      0.0000000E+00
 -0.6200000      0.0000000E+00
 -0.6000000      0.0000000E+00
 -0.5800000      0.0000000E+00
 -0.5600000      0.0000000E+00
 -0.5400000      0.0000000E+00
 -0.5200000      0.0000000E+00
 -0.5000000      0.0000000E+00
 -0.4800000      0.0000000E+00
 -0.4600000      0.0000000E+00
 -0.4400000      0.0000000E+00
 -0.4200000      0.0000000E+00
 -0.4000000      0.0000000E+00
 -0.3800000      0.0000000E+00
 -0.3600000      0.0000000E+00
 -0.3400000      0.0000000E+00
 -0.3200000      0.0000000E+00
 -0.3000000      0.0000000E+00
 -0.2800000      0.0000000E+00
 -0.2600000      0.0000000E+00
 -0.2400000      0.0000000E+00
 -0.2200000      0.0000000E+00
 -0.2000000      0.0000000E+00
 -0.1800000      0.0000000E+00
 -0.1600000      0.0000000E+00
 -0.1400000      0.0000000E+00
 -0.1200000      0.0000000E+00
 -0.1000000      0.0000000E+00
 -7.9999998E-02  0.0000000E+00
 -5.9999999E-02  0.0000000E+00
 -3.9999999E-02  0.0000000E+00
 -2.0000000E-02  0.0000000E+00
  0.0000000E+00  0.0000000E+00
  2.0000000E-02  0.0000000E+00
  3.9999999E-02  0.0000000E+00
  5.9999999E-02  0.0000000E+00
  7.9999998E-02  0.0000000E+00
  0.1000000      0.0000000E+00
  0.1200000      0.0000000E+00
  0.1400000      0.0000000E+00
  0.1600000      0.0000000E+00
  0.1800000      0.0000000E+00
  0.2000000      0.0000000E+00
  0.2200000      0.0000000E+00
  0.2400000      0.0000000E+00
  0.2600000      0.0000000E+00
  0.2800000      0.0000000E+00
  0.3000000      0.0000000E+00
  0.3200000      0.0000000E+00
  0.3400000      0.0000000E+00
  0.3600000      0.0000000E+00
  0.3800000      0.0000000E+00
  0.4000000      0.0000000E+00
  0.4200000      0.0000000E+00
  0.4400000      0.0000000E+00
  0.4600000      0.0000000E+00
  0.4800000      0.0000000E+00
  0.5000000      0.0000000E+00
  0.5200000      0.0000000E+00
  0.5400000      0.0000000E+00
  0.5600000      0.0000000E+00
  0.5800000      0.0000000E+00
  0.6000000      0.0000000E+00
  0.6200000      0.0000000E+00
  0.6400000      0.0000000E+00
  0.6600000      0.0000000E+00
  0.6800000      0.0000000E+00
  0.7000000      0.0000000E+00
  0.7200000      0.0000000E+00
  0.7400000      0.0000000E+00
  0.7600000      0.0000000E+00
  0.7800000      0.0000000E+00
  0.8000000      0.0000000E+00
  0.8200000      0.0000000E+00
  0.8400000      0.0000000E+00
  0.8600000      0.0000000E+00
  0.8800000      0.0000000E+00
  0.9000000      0.0000000E+00
  0.9200000      0.0000000E+00
  0.9400000      0.0000000E+00
  0.9600000      0.0000000E+00
  0.9800000      0.0000000E+00
   1.000000      0.0000000E+00
   1.020000      0.0000000E+00
   1.040000      0.0000000E+00
   1.060000      0.0000000E+00
   1.080000      0.0000000E+00
   1.100000      0.0000000E+00
   1.120000      0.0000000E+00
   1.140000      0.0000000E+00
   1.160000      0.0000000E+00
   1.180000      0.0000000E+00
   1.200000      0.0000000E+00
   1.220000      0.0000000E+00
   1.240000      0.0000000E+00
   1.260000      0.0000000E+00
   1.280000      0.0000000E+00
   1.300000      0.0000000E+00
   1.320000      0.0000000E+00
   1.340000      0.0000000E+00
   1.360000      0.0000000E+00
   1.380000      0.0000000E+00
   1.400000      0.0000000E+00
   1.420000      0.0000000E+00
   1.440000      0.0000000E+00
   1.460000      0.0000000E+00
   1.480000      0.0000000E+00
   1.500000      0.0000000E+00
   1.520000      0.0000000E+00
   1.540000      0.0000000E+00
   1.560000      0.0000000E+00
   1.580000      0.0000000E+00
   1.600000      0.0000000E+00
   1.620000      0.0000000E+00
   1.640000      0.0000000E+00
   1.660000      0.0000000E+00
   1.680000      0.0000000E+00
   1.700000      0.0000000E+00
   1.720000      0.0000000E+00
   1.740000      0.0000000E+00
   1.760000      0.0000000E+00
   1.780000      0.0000000E+00
   1.800000      0.0000000E+00
   1.820000      0.0000000E+00
   1.840000      0.0000000E+00
   1.860000      0.0000000E+00
   1.880000      0.0000000E+00
   1.900000      0.0000000E+00
   1.920000      0.0000000E+00
   1.940000      0.0000000E+00
   1.960000      0.0000000E+00
   1.980000      0.0000000E+00
   2.000000      0.0000000E+00
   2.020000      0.0000000E+00
   2.040000      0.0000000E+00
   2.060000      0.0000000E+00
   2.080000      0.0000000E+00
   2.100000      0.0000000E+00
   2.120000      0.0000000E+00
   2.140000      0.0000000E+00
   2.160000      0.0000000E+00
   2.180000      0.0000000E+00
   2.200000      0.0000000E+00
   2.220000      0.0000000E+00
   2.240000      0.0000000E+00
   2.260000      0.0000000E+00
   2.280000      0.0000000E+00
   2.300000      0.0000000E+00
   2.320000      0.0000000E+00
   2.340000      0.0000000E+00
   2.360000      0.0000000E+00
   2.380000      0.0000000E+00
   2.400000      0.0000000E+00
   2.420000      0.0000000E+00
   2.440000      0.0000000E+00
   2.460000      0.0000000E+00
   2.480000      0.0000000E+00
   2.500000      0.0000000E+00
   2.520000      0.0000000E+00
   2.540000      0.0000000E+00
   2.560000      0.0000000E+00
   2.580000      0.0000000E+00
   2.600000      0.0000000E+00
   2.620000      0.0000000E+00
   2.640000      0.0000000E+00
   2.660000      0.0000000E+00
   2.680000      0.0000000E+00
   2.700000      0.0000000E+00
   2.720000      0.0000000E+00
   2.740000      0.0000000E+00
   2.760000      0.0000000E+00
   2.780000      0.0000000E+00
   2.800000      0.0000000E+00
   2.820000      0.0000000E+00
   2.840000      0.0000000E+00
   2.860000      0.0000000E+00
   2.880000      0.0000000E+00
   2.900000      0.0000000E+00
   2.920000      0.0000000E+00
   2.940000      0.0000000E+00
   2.960000      0.0000000E+00
   2.980000      0.0000000E+00
   3.000000      0.0000000E+00
   3.020000      0.0000000E+00
   3.040000      0.0000000E+00
   3.060000      0.0000000E+00
   3.080000      0.0000000E+00
   3.100000      0.0000000E+00
   3.120000      0.0000000E+00
   3.140000      0.0000000E+00
   3.160000      0.0000000E+00
   3.180000      0.0000000E+00
   3.200000      0.0000000E+00
   3.220000      0.0000000E+00
   3.240000      0.0000000E+00
   3.260000      0.0000000E+00
   3.280000      0.0000000E+00
   3.300000      0.0000000E+00
   3.320000      0.0000000E+00
   3.340000      0.0000000E+00
   3.360000      0.0000000E+00
   3.380000      0.0000000E+00
   3.400000      0.0000000E+00
   3.420000      0.0000000E+00
   3.440000      0.0000000E+00
   3.460000      0.0000000E+00
   3.480000      0.0000000E+00
   3.500000      0.0000000E+00
   3.520000      0.0000000E+00
   3.540000      0.0000000E+00
   3.560000      0.0000000E+00
   3.580000      0.0000000E+00
   3.600000      0.0000000E+00
   3.620000      0.0000000E+00
   3.640000      0.0000000E+00
   3.660000      0.0000000E+00
   3.680000      0.0000000E+00
   3.700000      0.0000000E+00
   3.720000      0.0000000E+00
   3.740000      0.0000000E+00
   3.760000      0.0000000E+00
   3.780000      0.0000000E+00
   3.800000      0.0000000E+00
   3.820000      0.0000000E+00
   3.840000      0.0000000E+00
   3.860000      0.0000000E+00
   3.880000      0.0000000E+00
   3.900000      0.0000000E+00
   3.920000      0.0000000E+00
   3.940000      0.0000000E+00
   3.960000      0.0000000E+00
   3.980000      0.0000000E+00
   4.000000      0.0000000E+00
   4.020000      0.0000000E+00
   4.040000      0.0000000E+00
   4.060000      0.0000000E+00
   4.080000      0.0000000E+00
   4.100000      0.0000000E+00
   4.120000      0.0000000E+00
   4.140000      0.0000000E+00
   4.160000      0.0000000E+00
   4.180000      0.0000000E+00
   4.200000      0.0000000E+00
   4.220000      0.0000000E+00
   4.240000      0.0000000E+00
   4.260000      0.0000000E+00
   4.280000      0.0000000E+00
   4.300000      0.0000000E+00
   4.320000      0.0000000E+00
   4.340000      0.0000000E+00
   4.360000      0.0000000E+00
   4.380000      0.0000000E+00
   4.400000      0.0000000E+00
   4.420000      0.0000000E+00
   4.440000      0.0000000E+00
   4.460000      0.0000000E+00
   4.480000      0.0000000E+00
   4.500000      0.0000000E+00
   4.520000      0.0000000E+00
   4.540000      0.0000000E+00
   4.560000      0.0000000E+00
   4.580000      0.0000000E+00
   4.600000      0.0000000E+00
   4.620000      0.0000000E+00
   4.640000      0.0000000E+00
   4.660000      0.0000000E+00
   4.680000      0.0000000E+00
   4.700000      0.0000000E+00
   4.720000      0.0000000E+00
   4.740000      0.0000000E+00
   4.760000      0.0000000E+00
   4.780000      0.0000000E+00
   4.800000      0.0000000E+00
   4.820000      0.0000000E+00
   4.840000      0.0000000E+00
   4.860000      0.0000000E+00
   4.880000      0.0000000E+00
   4.900000      0.0000000E+00
   4.920000      0.0000000E+00
   4.940000      0.0000000E+00
   4.960000      0.0000000E+00
   4.980000      0.0000000E+00
   5.000000      0.0000000E+00
   5.020000      0.0000000E+00
   5.040000      0.0000000E+00
   5.060000      0.0000000E+00
   5.080000      0.0000000E+00
   5.100000      0.0000000E+00
   5.120000      0.0000000E+00
   5.140000      0.0000000E+00
   5.160000      0.0000000E+00
   5.180000      0.0000000E+00
   5.200000      0.0000000E+00
   5.220000      0.0000000E+00
   5.240000      0.0000000E+00
   5.260000      0.0000000E+00
   5.280000      0.0000000E+00
   5.300000      0.0000000E+00
   5.320000      0.0000000E+00
   5.340000      0.0000000E+00
   5.360000      0.0000000E+00
   5.380000      0.0000000E+00
   5.400000      0.0000000E+00
   5.420000      0.0000000E+00
   5.440000      0.0000000E+00
   5.460000      0.0000000E+00
   5.480000      0.0000000E+00
   5.500000      0.0000000E+00
   5.520000      0.0000000E+00
   5.540000      0.0000000E+00
   5.560000      0.0000000E+00
   5.580000      0.0000000E+00
   5.600000      0.0000000E+00
   5.620000      0.0000000E+00
   5.640000      0.0000000E+00
   5.660000      0.0000000E+00
   5.680000      0.0000000E+00
   5.700000      0.0000000E+00
   5.720000      0.0000000E+00
   5.740000      0.0000000E+00
   5.760000      0.0000000E+00
   5.780000      0.0000000E+00
   5.800000      0.0000000E+00
   5.820000      0.0000000E+00
   5.840000      0.0000000E+00
   5.860000      0.0000000E+00
   5.880000      0.0000000E+00
   5.900000      0.0000000E+00
   5.920000      0.0000000E+00
   5.940000      0.0000000E+00
   5.960000      0.0000000E+00
   5.980000      0.0000000E+00
   6.000000      0.0000000E+00
   6.020000      0.0000000E+00
   6.040000      0.0000000E+00
   6.060000      0.0000000E+00
   6.080000      0.0000000E+00
   6.100000      0.0000000E+00
   6.120000      0.0000000E+00
   6.140000      0.0000000E+00
   6.160000      0.0000000E+00
   6.180000      0.0000000E+00
   6.200000      0.0000000E+00
   6.220000      0.0000000E+00
   6.240000      0.0000000E+00
   6.260000      0.0000000E+00
   6.280000      0.0000000E+00
   6.300000      0.0000000E+00
   6.320000      0.0000000E+00
   6.340000      0.0000000E+00
   6.360000      0.0000000E+00
   6.380000      0.0000000E+00
   6.400000      0.0000000E+00
   6.420000      0.0000000E+00
   6.440000      0.0000000E+00
   6.460000      0.0000000E+00
   6.480000      0.0000000E+00
   6.500000      0.0000000E+00
   6.520000      0.0000000E+00
   6.540000      0.0000000E+00
   6.560000      0.0000000E+00
   6.580000      0.0000000E+00
   6.600000      0.0000000E+00
   6.620000      0.0000000E+00
   6.640000      0.0000000E+00
   6.660000      0.0000000E+00
   6.680000      0.0000000E+00
   6.700000      0.0000000E+00
   6.720000      0.0000000E+00
   6.740000      0.0000000E+00
   6.760000      0.0000000E+00
   6.780000      0.0000000E+00
   6.800000      0.0000000E+00
   6.820000      0.0000000E+00
   6.840000      0.0000000E+00
   6.860000      0.0000000E+00
   6.880000      0.0000000E+00
   6.900000      0.0000000E+00
   6.920000      0.0000000E+00
   6.940000      0.0000000E+00
   6.960000      0.0000000E+00
   6.980000      0.0000000E+00
   7.000000      0.0000000E+00
   7.020000      0.0000000E+00
   7.040000      0.0000000E+00
   7.060000      0.0000000E+00
   7.080000      0.0000000E+00
   7.100000      0.0000000E+00
   7.120000      0.0000000E+00
   7.140000      0.0000000E+00
   7.160000      0.0000000E+00
   7.180000      0.0000000E+00
   7.200000      0.0000000E+00
   7.220000      0.0000000E+00
   7.240000      0.0000000E+00
   7.260000      0.0000000E+00
   7.280000      0.0000000E+00
   7.300000      0.0000000E+00
   7.320000      0.0000000E+00
   7.340000      0.0000000E+00
   7.360000      0.0000000E+00
   7.380000      0.0000000E+00
   7.400000      0.0000000E+00
   7.420000      0.0000000E+00
   7.440000      0.0000000E+00
   7.460000      0.0000000E+00
   7.480000      0.0000000E+00
   7.500000      0.0000000E+00
   7.520000      0.0000000E+00
   7.540000      0.0000000E+00
   7.560000      0.0000000E+00
   7.580000      0.0000000E+00
   7.600000      0.0000000E+00
   7.620000      0.0000000E+00
   7.640000      0.0000000E+00
   7.660000      0.0000000E+00
   7.680000      0.0000000E+00
   7.700000      0.0000000E+00
   7.720000      0.0000000E+00
   7.740000      0.0000000E+00
   7.760000      0.0000000E+00
   7.780000      0.0000000E+00
   7.800000      0.0000000E+00
   7.820000      0.0000000E+00
   7.840000      0.0000000E+00
   7.860000      0.0000000E+00
   7.880000      0.0000000E+00
   7.900000      0.0000000E+00
   7.920000      0.0000000E+00
   7.940000      0.0000000E+00
   7.960000      0.0000000E+00
   7.980000      0.0000000E+00
   8.000000      0.0000000E+00
   8.020000      0.0000000E+00
   8.040000      0.0000000E+00
   8.060000      0.0000000E+00
   8.080000      0.0000000E+00
   8.100000      0.0000000E+00
   8.120000      0.0000000E+00
   8.140000      0.0000000E+00
   8.160000      0.0000000E+00
   8.180000      0.0000000E+00
   8.200000      0.0000000E+00
   8.220000      0.0000000E+00
   8.240000      0.0000000E+00
   8.260000      0.0000000E+00
   8.280000      0.0000000E+00
   8.300000      0.0000000E+00
   8.320000      0.0000000E+00
   8.340000      0.0000000E+00
   8.360000      0.0000000E+00
   8.380000      0.0000000E+00
   8.400000      0.0000000E+00
   8.420000      0.0000000E+00
   8.440000      0.0000000E+00
   8.460000      0.0000000E+00
   8.480000      0.0000000E+00
   8.500000      0.0000000E+00
   8.520000      0.0000000E+00
   8.540000      0.0000000E+00
   8.560000      0.0000000E+00
   8.580000      0.0000000E+00
   8.600000      0.0000000E+00
   8.620000      0.0000000E+00
   8.640000      0.0000000E+00
   8.660000      0.0000000E+00
   8.680000      0.0000000E+00
   8.700000      0.0000000E+00
   8.720000      0.0000000E+00
   8.740000      0.0000000E+00
   8.760000      0.0000000E+00
   8.780000      0.0000000E+00
   8.800000      0.0000000E+00
   8.820000      0.0000000E+00
   8.840000      0.0000000E+00
   8.860000      0.0000000E+00
   8.880000      0.0000000E+00
   8.900000      0.0000000E+00
   8.920000      0.0000000E+00
   8.940000      0.0000000E+00
   8.960000      0.0000000E+00
   8.980000      0.0000000E+00
   9.000000      0.0000000E+00
   9.020000      0.0000000E+00
   9.040000      0.0000000E+00
   9.060000      0.0000000E+00
   9.080000      0.0000000E+00
   9.100000      0.0000000E+00
   9.120000      0.0000000E+00
   9.140000      0.0000000E+00
   9.160000      0.0000000E+00
   9.180000      0.0000000E+00
   9.200000      0.0000000E+00
   9.220000      0.0000000E+00
   9.240000      0.0000000E+00
   9.260000      0.0000000E+00
   9.280000      0.0000000E+00
   9.300000      0.0000000E+00
   9.320000      0.0000000E+00
   9.340000      0.0000000E+00
   9.360000      0.0000000E+00
   9.380000      0.0000000E+00
   9.400000      0.0000000E+00
   9.420000      0.0000000E+00
   9.440000      0.0000000E+00
   9.460000      0.0000000E+00
   9.480000      0.0000000E+00
   9.500000      0.0000000E+00
   9.520000      0.0000000E+00
   9.540000      0.0000000E+00
   9.560000      0.0000000E+00
   9.580000      0.0000000E+00
   9.600000      0.0000000E+00
   9.620000      0.0000000E+00
   9.640000      0.0000000E+00
   9.660000      0.0000000E+00
   9.680000      0.0000000E+00
   9.700000      0.0000000E+00
   9.720000      0.0000000E+00
   9.740000      0.0000000E+00
   9.760000      0.0000000E+00
   9.780000      0.0000000E+00
   9.800000      0.0000000E+00
   9.820000      0.0000000E+00
   9.840000      0.0000000E+00
   9.860000      0.0000000E+00
   9.880000      0.0000000E+00
   9.900000      0.0000000E+00
   9.920000      0.0000000E+00
   9.940000      0.0000000E+00
   9.960000      0.0000000E+00
   9.980000      0.0000000E+00
   10.00000      0.0000000E+00
   10.02000      0.0000000E+00
   10.04000      0.0000000E+00
   10.06000      0.0000000E+00
   10.08000      0.0000000E+00
   10.10000      0.0000000E+00
   10.12000      0.0000000E+00
   10.14000      0.0000000E+00
   10.16000      0.0000000E+00
   10.18000      0.0000000E+00
   10.20000      0.0000000E+00
   10.22000      0.0000000E+00
   10.24000      0.0000000E+00
   10.26000      0.0000000E+00
   10.28000      0.0000000E+00
   10.30000      0.0000000E+00
   10.32000      0.0000000E+00
   10.34000      0.0000000E+00
   10.36000      0.0000000E+00
   10.38000      0.0000000E+00
   10.40000      0.0000000E+00
   10.42000      0.0000000E+00
   10.44000      0.0000000E+00
   10.46000      0.0000000E+00
   10.48000      0.0000000E+00
   10.50000      0.0000000E+00
   10.52000      0.0000000E+00
   10.54000      0.0000000E+00
   10.56000      0.0000000E+00
   10.58000      0.0000000E+00
   10.60000      0.0000000E+00
   10.62000      0.0000000E+00
   10.64000      4.3801569E-38
   10.66000      8.2482883E-38
   10.68000      6.2702686E-38
   10.70000     -3.0650315E-38
   10.72000     -1.7857792E-37
   10.74000     -2.3921979E-37
   10.76000     -6.3663545E-38
   10.78000      2.6428133E-37
   10.80000      3.9837391E-37
   10.82000      4.8523894E-38
   10.84000     -6.7914340E-37
   10.86000     -1.2276212E-36
   10.88000     -1.2805584E-36
   10.90000     -6.7606225E-37
   10.92000      8.5277590E-37
   10.94000      1.4995967E-36
   10.96000      9.9157933E-37
   10.98000     -1.1698537E-36
   11.00000     -2.1525864E-36
   11.02000      0.0000000E+00
   11.04000      4.5075907E-36
   11.06000      6.9496253E-36
   11.08000      1.7167267E-36
   11.10000     -1.0696583E-35
   11.12000     -1.7248431E-35
   11.14000     -6.0587694E-36
   11.16000      2.0005307E-35
   11.18000      3.7202390E-35
   11.20000      2.3174322E-35
   11.22000     -2.0828880E-35
   11.24000     -6.3886413E-35
   11.26000     -6.2879850E-35
   11.28000     -3.5352760E-37
   11.30000      8.6690280E-35
   11.32000      1.2463949E-34
   11.34000      5.9163612E-35
   11.36000     -8.7418008E-35
   11.38000     -2.0865165E-34
   11.40000     -1.8312368E-34
   11.42000      1.9694840E-35
   11.44000      2.7848212E-34
   11.46000      3.7784691E-34
   11.48000      1.7152184E-34
   11.50000     -2.5979745E-34
   11.52000     -6.0544089E-34
   11.54000     -5.2549120E-34
   11.56000      5.0841480E-35
   11.58000      7.7127729E-34
   11.60000      1.0381022E-33
   11.62000      4.6497607E-34
   11.64000     -7.0765715E-34
   11.66000     -1.6262294E-33
   11.68000     -1.3911311E-33
   11.70000      1.5541779E-34
   11.72000      2.0551070E-33
   11.74000      2.7355025E-33
   11.76000      1.2134974E-33
   11.78000     -1.8515853E-33
   11.80000     -4.2338926E-33
   11.82000     -3.6241016E-33
   11.84000      3.6018573E-34
   11.86000      5.2488420E-33
   11.88000      7.0229756E-33
   11.90000      3.1763176E-33
   11.92000     -4.6249469E-33
   11.94000     -1.0741368E-32
   11.96000     -9.3055983E-33
   11.98000      7.0392574E-34
   12.00000      1.3110156E-32
   12.02000      1.7783831E-32
   12.04000      8.3228380E-33
   12.06000     -1.1233715E-32
   12.08000     -2.6821193E-32
   12.10000     -2.3654870E-32
   12.12000      1.0704345E-33
   12.14000      3.2181568E-32
   12.16000      4.4453682E-32
   12.18000      2.1649118E-32
   12.20000     -2.6682308E-32
   12.22000     -6.5961355E-32
   12.24000     -5.9378346E-32
   12.26000      7.0697917E-34
   12.28000      7.7627202E-32
   12.30000      1.0944669E-31
   12.32000      5.5505709E-32
   12.34000     -6.2096665E-32
   12.36000     -1.5963761E-31
   12.38000     -1.4679255E-31
   12.40000     -3.1581154E-33
   12.42000      1.8408303E-31
   12.44000      2.6516277E-31
   12.46000      1.3982615E-31
   12.48000     -1.4175759E-31
   12.50000     -3.8001038E-31
   12.52000     -3.5675812E-31
   12.54000     -1.8908157E-32
   12.56000      4.2941439E-31
   12.58000      6.3172124E-31
   12.60000      3.4510422E-31
   12.62000     -3.1825527E-31
   12.64000     -8.8987236E-31
   12.66000     -8.5151569E-31
   12.68000     -6.9135237E-32
   12.70000      9.8614591E-31
   12.72000      1.4793842E-30
   12.74000      8.3318278E-31
   12.76000     -7.0435593E-31
   12.78000     -2.0501876E-30
   12.80000     -1.9946967E-30
   12.82000     -2.1003305E-31
   12.84000      2.2310864E-30
   12.86000      3.4049422E-30
   12.88000      1.9663139E-30
   12.90000     -1.5401319E-30
   12.92000     -4.6482519E-30
   12.94000     -4.5846834E-30
   12.96000     -5.7278445E-31
   12.98000      4.9763002E-30
   13.00000      7.7026500E-30
   13.02000      4.5355620E-30
   13.04000     -3.3344400E-30
   13.06000     -1.0374903E-29
   13.08000     -1.0340015E-29
   13.10000     -1.4466677E-30
   13.12000      1.0951893E-29
   13.14000      1.7133435E-29
   13.16000      1.0229289E-29
   13.18000     -7.1638252E-30
   13.20000     -2.2812947E-29
   13.22000     -2.2896540E-29
   13.24000     -3.4415612E-30
   13.26000      2.3805401E-29
   13.28000      3.7502581E-29
   13.30000      2.2583491E-29
   13.32000     -1.5295481E-29
   13.34000     -4.9459515E-29
   13.36000     -4.9831165E-29
   13.38000     -7.8008769E-30
   13.40000      5.1146446E-29
   13.42000      8.0857942E-29
   13.44000      4.8885371E-29
   13.46000     -3.2476054E-29
   13.48000     -1.0582699E-28
   13.50000     -1.0673297E-28
   13.52000     -1.6996055E-29
   13.54000      1.0870197E-28
   13.56000      1.7193889E-28
   13.58000      1.0398138E-28
   13.60000     -6.8560386E-29
   13.62000     -2.2371455E-28
   13.64000     -2.2539478E-28
   13.66000     -3.5925578E-29
   13.68000      2.2865500E-28
   13.70000      3.6113632E-28
   13.72000      2.1798590E-28
   13.74000     -1.4366972E-28
   13.76000     -4.6771059E-28
   13.78000     -4.7029707E-28
   13.80000     -7.4573470E-29
   13.82000      4.7602840E-28
   13.84000      7.5033167E-28
   13.86000      4.5202129E-28
   13.88000     -2.9786957E-28
   13.90000     -9.6767763E-28
   13.92000     -9.7170792E-28
   13.94000     -1.5427470E-28
   13.96000      9.8021870E-28
   13.98000      1.5440872E-27
   14.00000      9.3072808E-28
   14.02000     -6.0830757E-28
   14.04000     -1.9818952E-27
   14.06000     -1.9923158E-27
   14.08000     -3.2347852E-28
   14.10000      1.9938538E-27
   14.12000      3.1502812E-27
   14.14000      1.9105612E-27
   14.16000     -1.2161600E-27
   14.18000     -4.0169048E-27
   14.20000     -4.0609092E-27
   14.22000     -6.9864438E-28
   14.24000      3.9971370E-27
   14.26000      6.3740963E-27
   14.28000      3.9233882E-27
   14.30000     -2.3606085E-27
   14.32000     -8.0471832E-27
   14.34000     -8.2364736E-27
   14.36000     -1.5672636E-27
   14.38000      7.8715099E-27
   14.40000      1.2782696E-26
   14.42000      8.0751292E-27
   14.44000     -4.4003459E-27
   14.46000     -1.5902340E-26
   14.48000     -1.6621031E-26
   14.50000     -3.6388447E-27
   14.52000      1.5162535E-26
   14.54000      2.5370674E-26
   14.56000      1.6659420E-26
   14.58000     -7.7507895E-27
   14.60000     -3.0909459E-26
   14.62000     -3.3329712E-26
   14.64000     -8.6352097E-27
   14.66000      2.8406622E-26
   14.68000      4.9714692E-26
   14.70000      3.4381775E-26
   14.72000     -1.2540448E-26
   14.74000     -5.8858496E-26
   14.76000     -6.6243085E-26
   14.78000     -2.0599076E-26
   14.80000      5.1366613E-26
   14.82000      9.5841454E-26
   14.84000      7.0692420E-26
   14.86000     -1.7544015E-26
   14.88000     -1.0924802E-25
   14.90000     -1.3000169E-25
   14.92000     -4.8626964E-26
   14.94000      8.8710003E-26
   14.96000      1.8097570E-25
   14.98000      1.4401946E-25
   15.00000     -1.7448548E-26
   15.02000     -1.9638664E-25
   15.04000     -2.5074661E-25
   15.06000     -1.1226058E-25
   15.08000      1.4393385E-25
   15.10000      3.3288974E-25
   15.12000      2.8891212E-25
   15.14000      3.3471819E-27
   15.16000     -3.3892053E-25
   15.18000     -4.7264907E-25
   15.20000     -2.5128851E-25
   15.22000      2.1303391E-25
   15.24000      5.9228017E-25
   15.26000      5.6676348E-25
   15.28000      8.3244880E-26
   15.30000     -5.5443452E-25
   15.32000     -8.6473029E-25
   15.34000     -5.4178153E-25
   15.36000      2.6945156E-25
   15.38000      1.0098288E-24
   15.40000      1.0791466E-24
   15.42000      3.0612398E-25
   15.44000     -8.4227754E-25
   15.46000     -1.5225793E-24
   15.48000     -1.1187847E-24
   15.50000      2.3305281E-25
   15.52000      1.6277300E-24
   15.54000      1.9775230E-24
   15.56000      8.3749852E-25
   15.58000     -1.1420057E-24
   15.60000     -2.5503244E-24
   15.62000     -2.1994264E-24
   15.64000     -8.5585868E-26
   15.66000      2.4251065E-24
   15.68000      3.4495602E-24
   15.70000      1.9701138E-24
   15.72000     -1.2492721E-24
   15.74000     -3.9911857E-24
   15.76000     -4.0820420E-24
   15.78000     -1.0683480E-24
   15.80000      3.1935742E-24
   15.82000      5.6360735E-24
   15.84000      4.1528837E-24
   15.86000     -6.7126462E-25
   15.88000     -5.6486925E-24
   15.90000     -7.0586856E-24
   15.92000     -3.3796004E-24
   15.94000      3.2964584E-24
   15.96000      8.3855630E-24
   15.98000      7.9242845E-24
   16.00000      1.5770732E-24
   16.02000     -6.7037376E-24
   16.04000     -1.1100926E-23
   16.06000     -7.9743409E-24
   16.08000      1.2699782E-24
   16.10000      1.0676904E-23
   16.12000      1.3553394E-23
   16.14000      7.1549582E-24
   16.16000     -5.0062833E-24
   16.18000     -1.5043418E-23
   16.20000     -1.5769606E-23
   16.22000     -5.6959228E-24
   16.24000      9.4567801E-24
   16.26000      1.9974389E-23
   16.28000      1.8259610E-23
   16.30000      4.0272110E-24
   16.32000     -1.4808868E-23
   16.34000     -2.6400824E-23
   16.36000     -2.2108316E-23
   16.38000     -2.3849766E-24
   16.40000      2.2267677E-23
   16.42000      3.6425362E-23
   16.44000      2.8728923E-23
   16.46000     -4.0128911E-26
   16.48000     -3.4928928E-23
   16.50000     -5.3477859E-23
   16.52000     -3.9000747E-23
   16.54000      6.4915309E-24
   16.56000      5.8646955E-23
   16.58000      8.1816223E-23
   16.60000      5.1510475E-23
   16.62000     -2.4483213E-23
   16.64000     -1.0244208E-22
   16.66000     -1.2485331E-22
   16.68000     -5.9724918E-23
   16.70000      6.7705249E-23
   16.72000      1.7772449E-22
   16.74000      1.8176492E-22
   16.76000      4.8200241E-23
   16.78000     -1.5721241E-22
   16.80000     -2.9537918E-22
   16.82000     -2.4199246E-22
   16.84000      1.1580390E-23
   16.86000      3.2062834E-22
   16.88000      4.5966443E-22
   16.90000      2.7768487E-22
   16.92000     -1.6445270E-22