  -2.400000      0.0000000E+00
  -2.380000      0.0000000E+00
  -2.360000      0.0000000E+00
  -2.340000      0.0000000E+00
  -2.320000      0.0000000E+00
  -2.300000      0.0000000E+00
  -2.280000      0.0000000E+00
  -2.260000      0.0000000E+00
  -2.240000      0.0000000E+00
  -2.220000      0.0000000E+00
  -2.200000      0.0000000E+00
  -2.180000      0.0000000E+00
  -2.160000      0.0000000E+00
  -2.140000      0.0000000E+00
  -2.120000      0.0000000E+00
  -2.100000      0.0000000E+00
  -2.080000      0.0000000E+00
  -2.060000      0.0000000E+00
  -2.040000      0.0000000E+00
  -2.020000      0.0000000E+00
  -2.000000      0.0000000E+00
  -1.980000      0.0000000E+00
  -1.960000      0.0000000E+00
  -1.940000      0.0000000E+00
  -1.920000      0.0000000E+00
  -1.900000      0.0000000E+00
  -1.880000      0.0000000E+00
  -1.860000      0.0000000E+00
  -1.840000      0.0000000E+00
  -1.820000      0.0000000E+00
  -1.800000      0.0000000E+00
  -1.780000      0.0000000E+00
  -1.760000      0.0000000E+00
  -1.740000      0.0000000E+00
  -1.720000      0.0000000E+00
  -1.700000      0.0000000E+00
  -1.680000      0.0000000E+00
  -1.660000      0.0000000E+00
  -1.640000      0.0000000E+00
  -1.620000      0.0000000E+00
  -1.600000      0.0000000E+00
  -1.580000      0.0000000E+00
  -1.560000      0.0000000E+00
  -1.540000      0.0000000E+00
  -1.520000      0.0000000E+00
  -1.500000      0.0000000E+00
  -1.480000      0.0000000E+00
  -1.460000      0.0000000E+00
  -1.440000      0.0000000E+00
  -1.420000      0.0000000E+00
  -1.400000      0.0000000E+00
  -1.380000      0.0000000E+00
  -1.360000      0.0000000E+00
  -1.340000      0.0000000E+00
  -1.320000      0.0000000E+00
  -1.300000      0.0000000E+00
  -1.280000      0.0000000E+00
  -1.260000      0.0000000E+00
  -1.240000      0.0000000E+00
  -1.220000      0.0000000E+00
  -1.200000      0.0000000E+00
  -1.180000      0.0000000E+00
  -1.160000      0.0000000E+00
  -1.140000      0.0000000E+00
  -1.120000      0.0000000E+00
  -1.100000      0.0000000E+00
  -1.080000      0.0000000E+00
  -1.060000      0.0000000E+00
  -1.040000      0.0000000E+00
  -1.020000      0.0000000E+00
  -1.000000      0.0000000E+00
 -0.9800000      0.0000000E+00
 -0.9600000      0.0000000E+00
 -0.9400000      0.0000000E+00
 -0.9200000      0.0000000E+00
 -0.9000000      0.0000000E+00
 -0.8800000      0.0000000E+00
 -0.8600000      0.0000000E+00
 -0.8400000      0.0000000E+00
 -0.8200000      0.0000000E+00
 -0.8000000      0.0000000E+00
 -0.7800000      0.0000000E+00
 -0.7600000      0.0000000E+00
 -0.7400000      0.0000000E+00
 -0.7200000      0.0000000E+00
 -0.7000000      0.0000000E+00
 -0.6800000      0.0000000E+00
 -0.6600000      0.0000000E+00
 -0.6400000      0.0000000E+00
 -0.6200000      0.0000000E+00
 -0.6000000      0.0000000E+00
 -0.5800000      0.0000000E+00
 -0.5600000      0.0000000E+00
 -0.5400000      0.0000000E+00
 -0.5200000      0.0000000E+00
 -0.5000000      0.0000000E+00
 -0.4800000      0.0000000E+00
 -0.4600000      0.0000000E+00
 -0.4400000      0.0000000E+00
 -0.4200000      0.0000000E+00
 -0.4000000      0.0000000E+00
 -0.3800000      0.0000000E+00
 -0.3600000      0.0000000E+00
 -0.3400000      0.0000000E+00
 -0.3200000      0.0000000E+00
 -0.3000000      0.0000000E+00
 -0.2800000      0.0000000E+00
 -0.2600000      0.0000000E+00
 -0.2400000      0.0000000E+00
 -0.2200000      0.0000000E+00
 -0.2000000      0.0000000E+00
 -0.1800000      0.0000000E+00
 -0.1600000      0.0000000E+00
 -0.1400000      0.0000000E+00
 -0.1200000      0.0000000E+00
 -0.1000000      0.0000000E+00
 -7.9999998E-02  0.0000000E+00
 -5.9999999E-02  0.0000000E+00
 -3.9999999E-02  0.0000000E+00
 -2.0000000E-02  0.0000000E+00
  0.0000000E+00  0.0000000E+00
  2.0000000E-02  0.0000000E+00
  3.9999999E-02  0.0000000E+00
  5.9999999E-02  0.0000000E+00
  7.9999998E-02  0.0000000E+00
  0.1000000      0.0000000E+00
  0.1200000      0.0000000E+00
  0.1400000      0.0000000E+00
  0.1600000      0.0000000E+00
  0.1800000      0.0000000E+00
  0.2000000      0.0000000E+00
  0.2200000      0.0000000E+00
  0.2400000      0.0000000E+00
  0.2600000      0.0000000E+00
  0.2800000      0.0000000E+00
  0.3000000      0.0000000E+00
  0.3200000      0.0000000E+00
  0.3400000      0.0000000E+00
  0.3600000      0.0000000E+00
  0.3800000      0.0000000E+00
  0.4000000      0.0000000E+00
  0.4200000      0.0000000E+00
  0.4400000      0.0000000E+00
  0.4600000      0.0000000E+00
  0.4800000      0.0000000E+00
  0.5000000      0.0000000E+00
  0.5200000      0.0000000E+00
  0.5400000      0.0000000E+00
  0.5600000      0.0000000E+00
  0.5800000      0.0000000E+00
  0.6000000      0.0000000E+00
  0.6200000      0.0000000E+00
  0.6400000      0.0000000E+00
  0.6600000      0.0000000E+00
  0.6800000      0.0000000E+00
  0.7000000      0.0000000E+00
  0.7200000      0.0000000E+00
  0.7400000      0.0000000E+00
  0.7600000      0.0000000E+00
  0.7800000      0.0000000E+00
  0.8000000      0.0000000E+00
  0.8200000      0.0000000E+00
  0.8400000      0.0000000E+00
  0.8600000      0.0000000E+00
  0.8800000      0.0000000E+00
  0.9000000      0.0000000E+00
  0.9200000      0.0000000E+00
  0.9400000      0.0000000E+00
  0.9600000      0.0000000E+00
  0.9800000      0.0000000E+00
   1.000000      0.0000000E+00
   1.020000      0.0000000E+00
   1.040000      0.0000000E+00
   1.060000      0.0000000E+00
   1.080000      0.0000000E+00
   1.100000      0.0000000E+00
   1.120000      0.0000000E+00
   1.140000      0.0000000E+00
   1.160000      0.0000000E+00
   1.180000      0.0000000E+00
   1.200000      0.0000000E+00
   1.220000      0.0000000E+00
   1.240000      0.0000000E+00
   1.260000      0.0000000E+00
   1.280000      0.0000000E+00
   1.300000      0.0000000E+00
   1.320000      0.0000000E+00
   1.340000      0.0000000E+00
   1.360000      0.0000000E+00
   1.380000      0.0000000E+00
   1.400000      0.0000000E+00
   1.420000      0.0000000E+00
   1.440000      0.0000000E+00
   1.460000      0.0000000E+00
   1.480000      0.0000000E+00
   1.500000      0.0000000E+00
   1.520000      0.0000000E+00
   1.540000      0.0000000E+00
   1.560000      0.0000000E+00
   1.580000      0.0000000E+00
   1.600000      0.0000000E+00
   1.620000      0.0000000E+00
   1.640000      0.0000000E+00
   1.660000      0.0000000E+00
   1.680000      0.0000000E+00
   1.700000      0.0000000E+00
   1.720000      0.0000000E+00
   1.740000      0.0000000E+00
   1.760000      0.0000000E+00
   1.780000      0.0000000E+00
   1.800000      0.0000000E+00
   1.820000      0.0000000E+00
   1.840000      0.0000000E+00
   1.860000      0.0000000E+00
   1.880000      0.0000000E+00
   1.900000      0.0000000E+00
   1.920000      0.0000000E+00
   1.940000      0.0000000E+00
   1.960000      0.0000000E+00
   1.980000      0.0000000E+00
   2.000000      0.0000000E+00
   2.020000      0.0000000E+00
   2.040000      0.0000000E+00
   2.060000      0.0000000E+00
   2.080000      0.0000000E+00
   2.100000      0.0000000E+00
   2.120000      0.0000000E+00
   2.140000      0.0000000E+00
   2.160000      0.0000000E+00
   2.180000      0.0000000E+00
   2.200000      0.0000000E+00
   2.220000      0.0000000E+00
   2.240000      0.0000000E+00
   2.260000      0.0000000E+00
   2.280000      0.0000000E+00
   2.300000      0.0000000E+00
   2.320000      0.0000000E+00
   2.340000      0.0000000E+00
   2.360000      0.0000000E+00
   2.380000      0.0000000E+00
   2.400000      0.0000000E+00
   2.420000      0.0000000E+00
   2.440000      0.0000000E+00
   2.460000      0.0000000E+00
   2.480000      0.0000000E+00
   2.500000      0.0000000E+00
   2.520000      0.0000000E+00
   2.540000      0.0000000E+00
   2.560000      0.0000000E+00
   2.580000      0.0000000E+00
   2.600000      0.0000000E+00
   2.620000      0.0000000E+00
   2.640000      0.0000000E+00
   2.660000      0.0000000E+00
   2.680000      0.0000000E+00
   2.700000      0.0000000E+00
   2.720000      0.0000000E+00
   2.740000      0.0000000E+00
   2.760000      0.0000000E+00
   2.780000      0.0000000E+00
   2.800000      0.0000000E+00
   2.820000      0.0000000E+00
   2.840000      0.0000000E+00
   2.860000      0.0000000E+00
   2.880000      0.0000000E+00
   2.900000      0.0000000E+00
   2.920000      0.0000000E+00
   2.940000      0.0000000E+00
   2.960000      0.0000000E+00
   2.980000      0.0000000E+00
   3.000000      0.0000000E+00
   3.020000      0.0000000E+00
   3.040000      0.0000000E+00
   3.060000      0.0000000E+00
   3.080000      0.0000000E+00
   3.100000      0.0000000E+00
   3.120000      0.0000000E+00
   3.140000      0.0000000E+00
   3.160000      0.0000000E+00
   3.180000      0.0000000E+00
   3.200000      0.0000000E+00
   3.220000      0.0000000E+00
   3.240000      0.0000000E+00
   3.260000      0.0000000E+00
   3.280000      0.0000000E+00
   3.300000      0.0000000E+00
   3.320000      0.0000000E+00
   3.340000      0.0000000E+00
   3.360000      0.0000000E+00
   3.380000      0.0000000E+00
   3.400000      0.0000000E+00
   3.420000      0.0000000E+00
   3.440000      0.0000000E+00
   3.460000      0.0000000E+00
   3.480000      0.0000000E+00
   3.500000      0.0000000E+00
   3.520000      0.0000000E+00
   3.540000      0.0000000E+00
   3.560000      0.0000000E+00
   3.580000      0.0000000E+00
   3.600000      0.0000000E+00
   3.620000      0.0000000E+00
   3.640000      0.0000000E+00
   3.660000      0.0000000E+00
   3.680000      0.0000000E+00
   3.700000      0.0000000E+00
   3.720000      0.0000000E+00
   3.740000      0.0000000E+00
   3.760000      0.0000000E+00
   3.780000      0.0000000E+00
   3.800000      0.0000000E+00
   3.820000      0.0000000E+00
   3.840000      0.0000000E+00
   3.860000      0.0000000E+00
   3.880000      0.0000000E+00
   3.900000      0.0000000E+00
   3.920000      0.0000000E+00
   3.940000      0.0000000E+00
   3.960000      0.0000000E+00
   3.980000      0.0000000E+00
   4.000000      0.0000000E+00
   4.020000      0.0000000E+00
   4.040000      0.0000000E+00
   4.060000      0.0000000E+00
   4.080000      0.0000000E+00
   4.100000      0.0000000E+00
   4.120000      0.0000000E+00
   4.140000      0.0000000E+00
   4.160000      0.0000000E+00
   4.180000      0.0000000E+00
   4.200000      0.0000000E+00
   4.220000      0.0000000E+00
   4.240000      0.0000000E+00
   4.260000      0.0000000E+00
   4.280000      0.0000000E+00
   4.300000      0.0000000E+00
   4.320000      0.0000000E+00
   4.340000      0.0000000E+00
   4.360000      0.0000000E+00
   4.380000      0.0000000E+00
   4.400000      0.0000000E+00
   4.420000      0.0000000E+00
   4.440000      0.0000000E+00
   4.460000      0.0000000E+00
   4.480000      0.0000000E+00
   4.500000      0.0000000E+00
   4.520000      0.0000000E+00
   4.540000      0.0000000E+00
   4.560000      0.0000000E+00
   4.580000      0.0000000E+00
   4.600000      0.0000000E+00
   4.620000      0.0000000E+00
   4.640000      0.0000000E+00
   4.660000      0.0000000E+00
   4.680000      0.0000000E+00
   4.700000      0.0000000E+00
   4.720000      0.0000000E+00
   4.740000      0.0000000E+00
   4.760000      0.0000000E+00
   4.780000      0.0000000E+00
   4.800000      0.0000000E+00
   4.820000      0.0000000E+00
   4.840000      0.0000000E+00
   4.860000      0.0000000E+00
   4.880000      0.0000000E+00
   4.900000      0.0000000E+00
   4.920000      0.0000000E+00
   4.940000      0.0000000E+00
   4.960000      0.0000000E+00
   4.980000      0.0000000E+00
   5.000000      0.0000000E+00
   5.020000      0.0000000E+00
   5.040000      0.0000000E+00
   5.060000      0.0000000E+00
   5.080000      0.0000000E+00
   5.100000      0.0000000E+00
   5.120000      0.0000000E+00
   5.140000      0.0000000E+00
   5.160000      0.0000000E+00
   5.180000      0.0000000E+00
   5.200000      0.0000000E+00
   5.220000      0.0000000E+00
   5.240000      0.0000000E+00
   5.260000      0.0000000E+00
   5.280000      0.0000000E+00
   5.300000      0.0000000E+00
   5.320000      0.0000000E+00
   5.340000      0.0000000E+00
   5.360000      0.0000000E+00
   5.380000      0.0000000E+00
   5.400000      0.0000000E+00
   5.420000      0.0000000E+00
   5.440000      0.0000000E+00
   5.460000      0.0000000E+00
   5.480000      0.0000000E+00
   5.500000      0.0000000E+00
   5.520000      0.0000000E+00
   5.540000      0.0000000E+00
   5.560000      0.0000000E+00
   5.580000      0.0000000E+00
   5.600000      0.0000000E+00
   5.620000      0.0000000E+00
   5.640000      0.0000000E+00
   5.660000      0.0000000E+00
   5.680000      0.0000000E+00
   5.700000      0.0000000E+00
   5.720000      0.0000000E+00
   5.740000      0.0000000E+00
   5.760000      0.0000000E+00
   5.780000      0.0000000E+00
   5.800000      0.0000000E+00
   5.820000      0.0000000E+00
   5.840000      0.0000000E+00
   5.860000      0.0000000E+00
   5.880000      0.0000000E+00
   5.900000      0.0000000E+00
   5.920000      0.0000000E+00
   5.940000      0.0000000E+00
   5.960000      0.0000000E+00
   5.980000      0.0000000E+00
   6.000000      0.0000000E+00
   6.020000      0.0000000E+00
   6.040000      0.0000000E+00
   6.060000      0.0000000E+00
   6.080000      0.0000000E+00
   6.100000      0.0000000E+00
   6.120000      0.0000000E+00
   6.140000      0.0000000E+00
   6.160000      0.0000000E+00
   6.180000      0.0000000E+00
   6.200000      0.0000000E+00
   6.220000      0.0000000E+00
   6.240000      0.0000000E+00
   6.260000      0.0000000E+00
   6.280000      0.0000000E+00
   6.300000      0.0000000E+00
   6.320000      0.0000000E+00
   6.340000      0.0000000E+00
   6.360000      0.0000000E+00
   6.380000      0.0000000E+00
   6.400000      0.0000000E+00
   6.420000      0.0000000E+00
   6.440000      0.0000000E+00
   6.460000      0.0000000E+00
   6.480000      0.0000000E+00
   6.500000      0.0000000E+00
   6.520000      0.0000000E+00
   6.540000      0.0000000E+00
   6.560000      0.0000000E+00
   6.580000      0.0000000E+00
   6.600000      0.0000000E+00
   6.620000      0.0000000E+00
   6.640000      0.0000000E+00
   6.660000      0.0000000E+00
   6.680000      0.0000000E+00
   6.700000      0.0000000E+00
   6.720000      0.0000000E+00
   6.740000      0.0000000E+00
   6.760000      0.0000000E+00
   6.780000      0.0000000E+00
   6.800000      0.0000000E+00
   6.820000      0.0000000E+00
   6.840000      0.0000000E+00
   6.860000      0.0000000E+00
   6.880000      0.0000000E+00
   6.900000      0.0000000E+00
   6.920000      0.0000000E+00
   6.940000      0.0000000E+00
   6.960000      0.0000000E+00
   6.980000      0.0000000E+00
   7.000000      0.0000000E+00
   7.020000      0.0000000E+00
   7.040000      0.0000000E+00
   7.060000      0.0000000E+00
   7.080000      0.0000000E+00
   7.100000      0.0000000E+00
   7.120000      0.0000000E+00
   7.140000      0.0000000E+00
   7.160000      0.0000000E+00
   7.180000      0.0000000E+00
   7.200000      0.0000000E+00
   7.220000      0.0000000E+00
   7.240000      0.0000000E+00
   7.260000      0.0000000E+00
   7.280000      0.0000000E+00
   7.300000      0.0000000E+00
   7.320000      0.0000000E+00
   7.340000      0.0000000E+00
   7.360000      0.0000000E+00
   7.380000      0.0000000E+00
   7.400000      0.0000000E+00
   7.420000      0.0000000E+00
   7.440000      0.0000000E+00
   7.460000     -4.4543559E-38
   7.480000     -7.2270926E-38
   7.500000     -5.8751607E-38
   7.520000      2.3135289E-38
   7.540000      1.0230168E-37
   7.560000      4.0084611E-38
   7.580000     -1.6505518E-37
   7.600000     -3.7146624E-37
   7.620000     -3.7468665E-37
   7.640000     -3.4919696E-37
   7.660000     -2.1521308E-37
   7.680000      6.6884929E-38
   7.700000      4.6570569E-37
   7.720000      1.5360628E-37
   7.740000     -1.6817695E-36
   7.760000     -3.5086268E-36
   7.780000     -2.0671017E-36
   7.800000      2.1121348E-36
   7.820000      5.3446996E-36
   7.840000      2.9671780E-36
   7.860000     -5.6209752E-36
   7.880000     -9.8523954E-36
   7.900000     -1.3055924E-36
   7.920000      1.6977568E-35
   7.940000      2.7742089E-35
   7.960000      1.1574613E-35
   7.980000     -2.9558798E-35
   8.000000     -6.2061441E-35
   8.020000     -4.5385375E-35
   8.040000      2.7965220E-35
   8.060000      1.0923561E-34
   8.080000      1.1983124E-34
   8.100000      1.8047777E-35
   8.120000     -1.4431328E-34
   8.140000     -2.3479648E-34
   8.160000     -1.3586795E-34
   8.180000      1.3583112E-34
   8.200000      3.9171347E-34
   8.220000      3.8160411E-34
   8.240000      6.5003166E-36
   8.260000     -5.2694363E-34
   8.280000     -7.7962091E-34
   8.300000     -4.0185418E-34
   8.320000      5.0148655E-34
   8.340000      1.2895950E-33
   8.360000      1.1780038E-33
   8.380000     -7.9752292E-35
   8.400000     -1.7493771E-33
   8.420000     -2.4250685E-33
   8.440000     -1.0905931E-33
   8.460000      1.7754610E-33
   8.480000      4.0746627E-33
   8.500000      3.4386461E-33
   8.520000     -6.5270531E-34
   8.540000     -5.6829936E-33
   8.560000     -7.3084686E-33
   8.580000     -2.7333834E-33
   8.600000      6.0983736E-33
   8.620000      1.2550212E-32
   8.640000      9.7374440E-33
   8.660000     -3.1527974E-33
   8.680000     -1.7868415E-32
   8.700000     -2.1434449E-32
   8.720000     -6.4716430E-33
   8.740000      1.9922296E-32
   8.760000      3.7495510E-32
   8.780000      2.6830036E-32
   8.800000     -1.2404350E-32
   8.820000     -5.4295579E-32
   8.840000     -6.1217941E-32
   8.860000     -1.4346340E-32
   8.880000      6.2332204E-32
   8.900000      1.0894917E-31
   8.920000      7.2146565E-32
   8.940000     -4.3631923E-32
   8.960000     -1.5999683E-31
   8.980000     -1.7069687E-31
   9.000000     -2.9252697E-32
   9.020000      1.8782825E-31
   9.040000      3.0858039E-31
   9.060000      1.8983675E-31
   9.080000     -1.4227835E-31
   9.100000     -4.5841096E-31
   9.120000     -4.6577769E-31
   9.140000     -5.3082192E-32
   9.160000      5.4706567E-31
   9.180000      8.5375807E-31
   9.200000      4.9093492E-31
   9.220000     -4.3673518E-31
   9.240000     -1.2787542E-30
   9.260000     -1.2464562E-30
   9.280000     -8.0262936E-32
   9.300000      1.5418676E-30
   9.320000      2.3088518E-30
   9.340000      1.2515345E-30
   9.360000     -1.2733163E-30
   9.380000     -3.4742761E-30
   9.400000     -3.2723306E-30
   9.420000     -7.5496842E-32
   9.440000      4.2133904E-30
   9.460000      6.1058336E-30
   9.480000      3.1477301E-30
   9.500000     -3.5566156E-30
   9.520000     -9.2079644E-30
   9.540000     -8.4365309E-30
   9.560000      8.4433056E-32
   9.580000      1.1192693E-29
   9.600000      1.5816591E-29
   9.620000      7.8375170E-30
   9.640000     -9.5566622E-30
   9.660000     -2.3839942E-29
   9.680000     -2.1404403E-29
   9.700000      7.0156583E-31
   9.720000      2.8915515E-29
   9.740000      4.0162100E-29
   9.760000      1.9390723E-29
   9.780000     -2.4710641E-29
   9.800000     -6.0273777E-29
   9.820000     -5.3443942E-29
   9.840000      2.3727720E-30
   9.860000      7.2629882E-29
   9.880000      9.9898943E-29
   9.900000      4.7628696E-29
   9.920000     -6.1640664E-29
   9.940000     -1.4882732E-28
   9.960000     -1.3122421E-28
   9.980000      6.0924691E-30
   10.00000      1.7766156E-28
   10.02000      2.4355604E-28
   10.04000      1.1608065E-28
   10.06000     -1.4877479E-28
   10.08000     -3.5939379E-28
   10.10000     -3.1720755E-28
   10.12000      1.2321849E-29
   10.14000      4.2361855E-28
   10.16000      5.8262279E-28
   10.18000      2.8123645E-28
   10.20000     -3.4710316E-28
   10.22000     -8.4880499E-28
   10.24000     -7.5511799E-28
   10.26000      1.6117941E-29
   10.28000      9.8383367E-28
   10.30000      1.3664674E-27
   10.32000      6.7574343E-28
   10.34000     -7.8269364E-28
   10.36000     -1.9595164E-27
   10.38000     -1.7670373E-27
   10.40000     -5.8059520E-30
   10.42000      2.2277070E-27
   10.44000      3.1411085E-27
   10.46000      1.6030556E-27
   10.48000     -1.7114056E-27
   10.50000     -4.4274190E-27
   10.52000     -4.0639529E-27
   10.54000     -1.3270555E-28
   10.56000      4.9279070E-27
   10.58000      7.0852582E-27
   10.60000      3.7524141E-27
   10.62000     -3.6305208E-27
   10.64000     -9.7998942E-27
   10.66000     -9.1909830E-27
   10.68000     -6.0950049E-28
   10.70000      1.0648380E-26
   10.72000      1.5679051E-26
   10.74000      8.6514090E-27
   10.76000     -7.4644091E-27
   10.78000     -2.1238162E-26
   10.80000     -2.0404245E-26
   10.82000     -2.0778831E-27
   10.84000      2.2491657E-26
   10.86000      3.4011941E-26
   10.88000      1.9554343E-26
   10.90000     -1.4937389E-26
   10.92000     -4.5118015E-26
   10.94000     -4.4428119E-26
   10.96000     -6.0517661E-27
   10.98000      4.6587641E-26
   11.00000      7.2428968E-26
   11.02000      4.3302184E-26
   11.04000     -2.9206755E-26
   11.06000     -9.4158407E-26
   11.08000     -9.5020305E-26
   11.10000     -1.6078409E-26
   11.12000      9.4765799E-26
   11.14000      1.5158623E-25
   11.16000      9.4056613E-26
   11.18000     -5.5784891E-26
   11.20000     -1.9311966E-25
   11.22000     -1.9961214E-25
   11.24000     -3.9944487E-26
   11.26000      1.8951260E-25
   11.28000      3.1182639E-25
   11.30000      2.0005503E-25
   11.32000     -1.0470588E-25
   11.34000     -3.8999060E-25
   11.36000     -4.1200608E-25
   11.38000     -9.3448642E-26
   11.40000      3.7434376E-25
   11.42000      6.3218495E-25
   11.44000      4.1728923E-25
   11.46000     -1.9476154E-25
   11.48000     -7.7857372E-25
   11.50000     -8.3863468E-25
   11.52000     -2.0952234E-25
   11.54000      7.3282752E-25
   11.56000      1.2676284E-24
   11.58000      8.5801630E-25
   11.60000     -3.5883739E-25
   11.62000     -1.5397848E-24
   11.64000     -1.6885299E-24
   11.66000     -4.5690794E-25
   11.68000      1.4230674E-24
   11.70000      2.5184331E-24
   11.72000      1.7435313E-24
   11.74000     -6.5629204E-25
   11.76000     -3.0232787E-24
   11.78000     -3.3705885E-24
   11.80000     -9.7395223E-25
   11.82000      2.7513260E-24
   11.84000      4.9751935E-24
   11.86000      3.5163877E-24
   11.88000     -1.1947234E-24
   11.90000     -5.9169400E-24
   11.92000     -6.7061089E-24
   11.94000     -2.0608313E-24
   11.96000      5.3012498E-24
   11.98000      9.8124783E-24
   12.00000      7.0962006E-24
   12.02000     -2.1254260E-24
   12.04000     -1.1546998E-23
   12.06000     -1.3350841E-23
   12.08000     -4.4053748E-24
   12.10000      1.0126154E-23
   12.12000      1.9324162E-23
   12.14000      1.4386699E-23
   12.16000     -3.5892335E-24
   12.18000     -2.2417570E-23
   12.20000     -2.6609616E-23
   12.22000     -9.5577196E-24
   12.24000      1.9085833E-23
   12.26000      3.7982485E-23
   12.28000      2.9356468E-23
   12.30000     -5.4912919E-24
   12.32000     -4.3223390E-23
   12.34000     -5.3158130E-23
   12.36000     -2.1147624E-23
   12.38000      3.5209554E-23
   12.40000      7.4434870E-23
   12.42000      6.0446290E-23
   12.44000     -6.4777988E-24
   12.46000     -8.2277732E-23
   12.48000     -1.0627942E-22
   12.50000     -4.7749779E-23
   12.52000      6.2501544E-23
   12.54000      1.4461561E-22
   12.56000      1.2514284E-22
   12.58000     -1.2406561E-24
   12.60000     -1.5317924E-22
   12.62000     -2.1139107E-22
   12.64000     -1.0860276E-22
   12.66000      1.0457838E-22
   12.68000      2.7673289E-22
   12.70000      2.5865757E-22
   12.72000      2.5701806E-23
   12.74000     -2.7655214E-22
   12.76000     -4.1612206E-22
   12.78000     -2.4591904E-22
   12.80000      1.5927132E-22
   12.82000      5.1846897E-22
   12.84000      5.3083473E-22
   12.86000      1.1566744E-22
   12.88000     -4.7780919E-22
   12.90000     -8.0580473E-22
   12.92000     -5.4974053E-22
   12.94000      2.0143143E-22
   12.96000      9.4174866E-22
   12.98000      1.0730788E-21
   13.00000      3.6830972E-22
   13.02000     -7.7277915E-22
   13.04000     -1.5211962E-21
   13.06000     -1.1995779E-21
   13.08000      1.4535206E-22
   13.10000      1.6390430E-21
   13.12000      2.1175490E-21
   13.14000      1.0011075E-21
   13.16000     -1.1305909E-21
   13.18000     -2.7773247E-21
   13.20000     -2.5360190E-21
   13.22000     -2.3486290E-22
   13.24000      2.6957982E-21
   13.26000      4.0540724E-21
   13.28000      2.4652589E-21
   13.30000     -1.3743352E-21
   13.32000     -4.8589651E-21
   13.34000     -5.1735874E-21
   13.36000     -1.4748156E-21
   13.38000      4.0786216E-21
   13.40000      7.4687858E-21
   13.42000      5.6330975E-21
   13.44000     -9.5658268E-22
   13.46000     -8.0173108E-21
   13.48000     -1.0113985E-20
   13.50000     -4.7005960E-21
   13.52000      5.3686235E-21
   13.54000      1.3092960E-20
   13.56000      1.2035957E-20
   13.58000      1.4355693E-21
   13.60000     -1.2192481E-20
   13.62000     -1.8821315E-20
   13.64000     -1.2066688E-20
   13.66000      5.2269264E-21
   13.68000      2.1565836E-20
   13.70000      2.4172234E-20
   13.72000      8.6179570E-21
   13.74000     -1.6313241E-20
   13.76000     -3.3097151E-20
   13.78000     -2.7427351E-20
   13.80000      2.5299630E-22
   13.82000      3.2564094E-20
   13.84000      4.5599171E-20
   13.86000      2.6085339E-20
   13.88000     -1.6682679E-20
   13.90000     -5.4111807E-20
   13.92000     -5.6821867E-20
   13.94000     -1.6845504E-20
   13.96000      4.2735853E-20
   13.98000      8.0099214E-20
   14.00000      6.3215579E-20
   14.02000     -4.3074905E-21
   14.04000     -8.0032955E-20
   14.06000     -1.0825384E-19
   14.08000     -5.9739921E-20
   14.10000      4.1909367E-20
   14.12000      1.2926580E-19
   14.14000      1.3440785E-19
   14.16000      3.9704075E-20
   14.18000     -1.0071703E-19
   14.20000     -1.8957898E-19
   14.22000     -1.5191490E-19
   14.24000      5.4063697E-21
   14.26000      1.8530358E-19
   14.28000      2.5775377E-19
   14.30000      1.5087449E-19
   14.32000     -8.6159882E-20
   14.34000     -2.9949263E-19
   14.36000     -3.2706471E-19
   14.38000     -1.1706071E-19
   14.40000      2.1543038E-19
   14.42000      4.4543619E-19
   14.44000      3.8557528E-19
   14.46000      3.0486426E-20
   14.48000     -4.0844666E-19
   14.50000     -6.2190385E-19
   14.52000     -4.1351762E-19
   14.54000      1.3636164E-19
   14.56000      6.8212400E-19
   14.58000      8.2105260E-19
   14.60000      3.7931517E-19
   14.62000     -4.2037515E-19
   14.64000     -1.0528014E-18
   14.66000     -1.0227107E-18
   14.68000     -2.3389343E-19
   14.70000      8.6915496E-19
   14.72000      1.5311533E-18
   14.74000      1.1852077E-18
   14.76000     -9.6595399E-20
   14.78000     -1.5405241E-18
   14.80000     -2.1126869E-18
   14.82000     -1.2321758E-18
   14.84000      7.1845108E-19
   14.86000      2.4978137E-18
   14.88000      2.7618659E-18
   14.90000      1.0355478E-18
   14.92000     -1.7756590E-18
   14.94000     -3.7969733E-18
   14.96000     -3.3875344E-18
   14.98000     -3.9613904E-19
   15.00000      3.4478482E-18
   15.02000      5.4600803E-18
   15.04000      3.8073771E-18
   15.06000     -9.7525814E-19
   15.08000     -5.9343228E-18
   15.10000     -7.4292706E-18
   15.12000     -3.7005459E-18
   15.14000      3.4709644E-18
   15.16000      9.4162328E-18
   15.18000      9.4965967E-18
   15.20000      2.5515763E-18
   15.22000     -7.5842569E-18
   15.24000     -1.3988000E-17
   15.26000     -1.1209318E-17
   15.28000      4.0382066E-19
   15.30000      1.3876074E-17
   15.32000      1.9548106E-17
   15.34000      1.1756055E-17
   15.36000     -6.2105940E-18
   15.38000     -2.2886574E-17
   15.40000     -2.5638260E-17
   15.42000     -9.8458059E-18
   15.44000      1.6173811E-17
   15.46000      3.4961993E-17
   15.48000      3.1221962E-17
   15.50000      3.5990136E-18
   15.52000     -3.1750239E-17
   15.54000     -4.9969561E-17
   15.56000     -3.4403775E-17
   15.58000      9.5196362E-18
   15.60000      5.4316659E-17
   15.62000      6.6889126E-17
   15.64000      3.2115817E-17
   15.66000     -3.2677843E-17
   15.68000     -8.4781301E-17
   15.70000     -8.3296962E-17
   15.72000     -1.9838137E-17
   15.74000      6.9482080E-17
   15.76000      1.2300301E-16
   15.78000      9.4786984E-17
   15.80000     -8.5359332E-18
   15.82000     -1.2350026E-16
   15.84000     -1.6697661E-16
   15.86000     -9.4394477E-17
   15.88000      6.0551229E-17
   15.90000      1.9737380E-16
   15.92000      2.1174869E-16
   15.94000      7.2098300E-17
   15.96000     -1.4462717E-16
   15.98000     -2.9142621E-16
   16.00000     -2.4807713E-16
   16.02000     -1.4504385E-17
   16.04000      2.6897926E-16
   16.06000      4.0177295E-16
   16.08000      2.6096794E-16
   16.10000     -9.5109981E-17
   16.12000     -4.3994711E-16
   16.14000     -5.1806065E-16
   16.16000     -2.2839995E-16
   16.18000      2.7606686E-16
   16.20000      6.5960923E-16
   16.22000      6.2104397E-16
   16.24000      1.2070325E-16
   16.26000     -5.4839433E-16
   16.28000     -9.2247140E-16
   16.30000     -6.8019334E-16
   16.32000      9.8912094E-17
   16.34000      9.2925496E-16
   16.36000      1.2109856E-15
   16.38000      6.5145579E-16
   16.40000     -4.7233326E-16
   16.42000     -1.4274073E-15
   16.44000     -1.4898616E-15
   16.46000     -4.7535187E-16
   16.48000      1.0428848E-15
   16.50000      2.0358752E-15
   16.52000      1.6997065E-15
   16.54000      7.5996703E-17
   16.56000     -1.8498759E-15
   16.58000     -2.7234415E-15
   16.60000     -1.7512683E-15
   16.62000      6.3762184E-16
   16.64000      2.9207756E-15
   16.66000      3.4256422E-15
   16.68000      1.5220531E-15
   16.70000     -1.7660696E-15
   16.72000     -4.2597380E-15
   16.74000     -4.0354140E-15
   16.76000     -8.5677827E-16
   16.78000      3.4076235E-15
   16.80000      5.8309947E-15
   16.82000      4.3929471E-15
   16.84000     -4.2790540E-16
   16.86000     -5.6395026E-15
   16.88000     -7.5367569E-15
   16.90000     -4.2746547E-15
   16.92000      2.5348323E-15