  -2.400000      0.0000000E+00
  -2.380000      0.0000000E+00
  -2.360000      0.0000000E+00
  -2.340000      0.0000000E+00
  -2.320000      0.0000000E+00
  -2.300000      0.0000000E+00
  -2.280000      0.0000000E+00
  -2.260000      0.0000000E+00
  -2.240000      0.0000000E+00
  -2.220000      0.0000000E+00
  -2.200000      0.0000000E+00
  -2.180000      0.0000000E+00
  -2.160000      0.0000000E+00
  -2.140000      0.0000000E+00
  -2.120000      0.0000000E+00
  -2.100000      0.0000000E+00
  -2.080000      0.0000000E+00
  -2.060000      0.0000000E+00
  -2.040000      0.0000000E+00
  -2.020000      0.0000000E+00
  -2.000000      0.0000000E+00
  -1.980000      0.0000000E+00
  -1.960000      0.0000000E+00
  -1.940000      0.0000000E+00
  -1.920000      0.0000000E+00
  -1.900000      0.0000000E+00
  -1.880000      0.0000000E+00
  -1.860000      0.0000000E+00
  -1.840000      0.0000000E+00
  -1.820000      0.0000000E+00
  -1.800000      0.0000000E+00
  -1.780000      0.0000000E+00
  -1.760000      0.0000000E+00
  -1.740000      0.0000000E+00
  -1.720000      0.0000000E+00
  -1.700000      0.0000000E+00
  -1.680000      0.0000000E+00
  -1.660000      0.0000000E+00
  -1.640000      0.0000000E+00
  -1.620000      0.0000000E+00
  -1.600000      0.0000000E+00
  -1.580000      0.0000000E+00
  -1.560000      0.0000000E+00
  -1.540000      0.0000000E+00
  -1.520000      0.0000000E+00
  -1.500000      0.0000000E+00
  -1.480000      0.0000000E+00
  -1.460000      0.0000000E+00
  -1.440000      0.0000000E+00
  -1.420000      0.0000000E+00
  -1.400000      0.0000000E+00
  -1.380000      0.0000000E+00
  -1.360000      0.0000000E+00
  -1.340000      0.0000000E+00
  -1.320000      0.0000000E+00
  -1.300000      0.0000000E+00
  -1.280000      0.0000000E+00
  -1.260000      0.0000000E+00
  -1.240000      0.0000000E+00
  -1.220000      0.0000000E+00
  -1.200000      0.0000000E+00
  -1.180000      0.0000000E+00
  -1.160000      0.0000000E+00
  -1.140000      0.0000000E+00
  -1.120000      0.0000000E+00
  -1.100000     -1.9641657E-38
  -1.080000     -5.7952363E-38
  -1.060000     -9.6263061E-38
  -1.040000     -1.3998358E-38
  -1.020000      4.3330144E-37
  -1.000000      1.1730580E-36
 -0.9800000      1.3356673E-36
 -0.9600000      0.0000000E+00
 -0.9400000     -3.4391547E-36
 -0.9200000     -4.8159079E-36
 -0.9000000      1.5660824E-36
 -0.8800000      1.6540972E-35
 -0.8600000      2.9494669E-35
 -0.8400000      1.9807014E-35
 -0.8200000     -3.5848150E-35
 -0.8000000     -1.3070128E-34
 -0.7800000     -1.8288950E-34
 -0.7600000     -3.4861047E-35
 -0.7400000      4.0879859E-34
 -0.7200000      9.2886618E-34
 -0.7000000      8.4160345E-34
 -0.6800000     -6.3730666E-34
 -0.6600000     -3.3229671E-33
 -0.6400000     -4.9284437E-33
 -0.6200000     -1.5450547E-33
 -0.6000000      8.7077029E-33
 -0.5800000      2.0033877E-32
 -0.5600000      1.7207855E-32
 -0.5400000     -1.4279795E-32
 -0.5200000     -6.5553605E-32
 -0.5000000     -8.6856237E-32
 -0.4800000     -8.5539284E-33
 -0.4600000      1.8072241E-31
 -0.4400000      3.4252791E-31
 -0.4200000      2.0405477E-31
 -0.4000000     -4.0636181E-31
 -0.3800000     -1.1779556E-30
 -0.3600000     -1.1760951E-30
 -0.3400000      5.5164582E-31
 -0.3200000      3.5982552E-30
 -0.3000000      5.1356491E-30
 -0.2800000      1.1049649E-30
 -0.2600000     -9.3807616E-30
 -0.2400000     -1.8994820E-29
 -0.2200000     -1.3028495E-29
 -0.2000000      1.8283179E-29
 -0.1800000      6.0292784E-29
 -0.1600000      6.6742729E-29
 -0.1400000     -1.1315837E-29
 -0.1200000     -1.6084909E-28
 -0.1000000     -2.5690360E-28
 -7.9999998E-02 -1.1199055E-28
 -5.9999999E-02  3.3688504E-28
 -3.9999999E-02  8.1262755E-28
 -2.0000000E-02  7.1486509E-28
  0.0000000E+00 -4.1527349E-28
  2.0000000E-02 -2.1479271E-27
  3.9999999E-02 -2.8408139E-27
  5.9999999E-02 -5.8137782E-28
  7.9999998E-02  4.6049043E-27
  0.1000000      8.9305880E-27
  0.1200000      6.1226553E-27
  0.1400000     -6.9397080E-27
  0.1600000     -2.3386640E-26
  0.1800000     -2.5887589E-26
  0.2000000      1.1348995E-27
  0.2200000      5.0647557E-26
  0.2400000      8.1900291E-26
  0.2600000      4.1248970E-26
  0.2800000     -8.3473458E-26
  0.3000000     -2.1331637E-25
  0.3200000     -1.9764665E-25
  0.3400000      6.4155802E-26
  0.3600000      4.6232288E-25
  0.3800000      6.3861998E-25
  0.4000000      2.1242538E-25
  0.4200000     -7.9072819E-25
  0.4400000     -1.6567290E-24
  0.4600000     -1.2879495E-24
  0.4800000      8.1920360E-25
  0.5000000      3.5584407E-24
  0.5200000      4.3003904E-24
  0.5400000      7.7594005E-25
  0.5600000     -6.1118131E-24
  0.5800000     -1.1078456E-23
  0.6000000     -7.3191998E-24
  0.6200000      6.9889329E-24
  0.6400000      2.3331823E-23
  0.6600000      2.5334487E-23
  0.6800000      1.4608937E-24
  0.7000000     -3.9370514E-23
  0.7200000     -6.4392336E-23
  0.7400000     -3.7142626E-23
  0.7600000      4.5971093E-23
  0.7800000      1.3182513E-22
  0.8000000      1.3245941E-22
  0.8200000     -3.3938713E-24
  0.8400000     -2.1541272E-22
  0.8600000     -3.2985140E-22
  0.8800000     -1.7414907E-22
  0.9000000      2.4545045E-22
  0.9200000      6.5128472E-22
  0.9400000      6.2772250E-22
  0.9600000     -3.3794397E-23
  0.9800000     -1.0153529E-21
   1.000000     -1.5137815E-21
   1.020000     -7.8706957E-22
   1.040000      1.0812784E-21
   1.060000      2.8478348E-21
   1.080000      2.7475018E-21
   1.100000     -4.5290937E-23
   1.120000     -4.1601340E-21
   1.140000     -6.2966971E-21
   1.160000     -3.4756134E-21
   1.180000      3.9633705E-21
   1.200000      1.1141634E-20
   1.220000      1.1177829E-20
   1.240000      7.7446512E-22
   1.260000     -1.5060159E-20
   1.280000     -2.3992408E-20
   1.300000     -1.4646475E-20
   1.320000      1.2364768E-20
   1.340000      3.9769580E-20
   1.360000      4.2435063E-20
   1.380000      7.2498406E-21
   1.400000     -4.9613676E-20
   1.420000     -8.5161023E-20
   1.440000     -5.7831408E-20
   1.460000      3.3689095E-20
   1.480000      1.3247493E-19
   1.500000      1.5142808E-19
   1.520000      4.0624013E-20
   1.540000     -1.5184844E-19
   1.560000     -2.8410826E-19
   1.580000     -2.1225904E-19
   1.600000      7.9264026E-20
   1.620000      4.1288371E-19
   1.640000      5.0387707E-19
   1.660000      1.7751052E-19
   1.680000     -4.3042157E-19
   1.700000     -8.7921338E-19
   1.720000     -7.0799319E-19
   1.740000      1.5549398E-19
   1.760000      1.1883766E-18
   1.780000      1.5298562E-18
   1.800000      6.3522131E-19
   1.820000     -1.1255601E-18
   1.840000     -2.4854178E-18
   1.860000     -2.1092105E-18
   1.880000      2.3927132E-19
   1.900000      3.1294011E-18
   1.920000      4.1987063E-18
   1.940000      1.9485064E-18
   1.960000     -2.6700937E-18
   1.980000     -6.3542125E-18
   2.000000     -5.6476319E-18
   2.020000      8.9563911E-20
   2.040000      7.3355311E-18
   2.060000      1.0317081E-17
   2.080000      5.3855988E-18
   2.100000     -5.3056903E-18
   2.120000     -1.4192007E-17
   2.140000     -1.3421430E-17
   2.160000     -1.4311346E-18
   2.180000      1.4329536E-17
   2.200000      2.1707764E-17
   2.220000      1.3015851E-17
   2.240000     -7.7216830E-18
   2.260000     -2.5930678E-17
   2.280000     -2.6624542E-17
   2.300000     -6.5759701E-18
   2.320000      2.1309180E-17
   2.340000      3.6228704E-17
   2.360000      2.5235558E-17
   2.380000     -5.6045565E-18
   2.400000     -3.4388658E-17
   2.420000     -3.9625588E-17
   2.440000     -1.7120926E-17
   2.460000      1.6525034E-17
   2.480000      3.7306590E-17
   2.500000      3.3045988E-17
   2.520000      1.1680030E-17
   2.540000     -8.8055783E-18
   2.560000     -1.8842484E-17
   2.580000     -2.4901857E-17
   2.600000     -3.6610475E-17
   2.620000     -4.5829869E-17
   2.640000     -2.3861507E-17
   2.660000      4.9560318E-17
   2.680000      1.4554449E-16
   2.700000      1.7887320E-16
   2.720000      6.4735148E-17
   2.740000     -1.8662293E-16
   2.760000     -4.1907667E-16
   2.780000     -4.0171435E-16
   2.800000     -1.3955265E-17
   2.820000      5.8126360E-16
   2.840000      9.4973866E-16
   2.860000      6.5811178E-16
   2.880000     -3.3192622E-16
   2.900000     -1.4569667E-15
   2.920000     -1.7985529E-15
   2.940000     -7.4584306E-16
   2.960000      1.3496734E-15
   2.980000      3.1060577E-15
   3.000000      2.9091306E-15
   3.020000      2.0492181E-16
   3.040000     -3.6457954E-15
   3.060000     -5.8349944E-15
   3.080000     -3.9598553E-15
   3.100000      1.8287153E-15
   3.120000      8.0848804E-15
   3.140000      9.8211776E-15
   3.160000      4.1174839E-15
   3.180000     -6.8015412E-15
   3.200000     -1.5731524E-14
   3.220000     -1.4791130E-14
   3.240000     -1.6352678E-15
   3.260000      1.6910645E-14
   3.280000      2.7562003E-14
   3.300000      1.9367925E-14
   3.320000     -6.7244235E-15
   3.340000     -3.5082258E-14
   3.360000     -4.3669549E-14
   3.380000     -1.9951968E-14
   3.400000      2.6256380E-14
   3.420000      6.4328846E-14
   3.440000      6.1638459E-14
   3.460000      9.2830940E-15
   3.480000     -6.4234771E-14
   3.500000     -1.0584081E-13
   3.520000     -7.4074542E-14
   3.540000      2.4476559E-14
   3.560000      1.2805329E-13
   3.580000      1.5538681E-13
   3.600000      6.6184241E-14
   3.620000     -9.6429348E-14
   3.640000     -2.2046339E-13
   3.660000     -1.9866525E-13
   3.680000     -1.5553917E-14
   3.700000      2.1948961E-13
   3.720000      3.3211379E-13
   3.740000      2.0810506E-13
   3.760000     -1.0311519E-13
   3.780000     -3.9449496E-13
   3.800000     -4.3440154E-13
   3.820000     -1.4517299E-13
   3.840000      3.0702020E-13
   3.860000      5.9928982E-13
   3.880000      4.7854423E-13
   3.900000     -2.8445701E-14
   3.920000     -5.9076539E-13
   3.940000     -7.8407463E-13
   3.960000     -4.0666605E-13
   3.980000      3.3193739E-13
   4.000000      9.1597628E-13
   4.020000      8.8035108E-13
   4.040000      1.7464265E-13
   4.060000     -7.4728066E-13
   4.080000     -1.2142675E-12
   4.100000     -8.2369951E-13
   4.120000      2.2448853E-13
   4.140000      1.2160313E-12
   4.160000      1.4073639E-12
   4.180000      5.7840017E-13
   4.200000     -7.5578600E-13
   4.220000     -1.6609707E-12
   4.240000     -1.4354950E-12
   4.260000     -1.4349974E-13
   4.280000      1.3690284E-12
   4.300000      2.0241211E-12
   4.320000      1.2710457E-12
   4.340000     -4.7399395E-13
   4.360000     -2.0434574E-12
   4.380000     -2.2860028E-12
   4.400000     -8.8986484E-13
   4.420000      1.3102791E-12
   4.440000      2.8062826E-12
   4.460000      2.4195199E-12
   4.480000      1.9120843E-13
   4.500000     -2.4826894E-12
   4.520000     -3.6748673E-12
   4.540000     -2.2651069E-12
   4.560000      1.0932310E-12
   4.580000      4.1576738E-12
   4.600000      4.5133862E-12
   4.620000      1.3953830E-12
   4.640000     -3.3972614E-12
   4.660000     -6.3973930E-12
   4.680000     -4.8649019E-12
   4.700000      8.8672033E-13
   4.720000      7.1035591E-12
   4.740000      8.8816437E-12
   4.760000      3.8724289E-12
   4.780000     -5.2914773E-12
   4.800000     -1.2095072E-11
   4.820000     -1.0612565E-11
   4.840000     -4.0619558E-13
   4.860000      1.2052585E-11
   4.880000      1.7281494E-11
   4.900000      9.8516056E-12
   4.920000     -6.5354718E-12
   4.940000     -2.0434550E-11
   4.960000     -2.0508636E-11
   4.980000     -4.5838134E-12
   5.000000      1.7200893E-11
   5.020000      2.8600731E-11
   5.040000      1.9245416E-11
   5.060000     -6.3661381E-12
   5.080000     -3.0434755E-11
   5.100000     -3.4116356E-11
   5.120000     -1.2078431E-11
   5.140000      2.1841839E-11
   5.160000      4.3268170E-11
   5.180000      3.4890826E-11
   5.200000      2.0678397E-13
   5.220000     -3.7505641E-11
   5.240000     -5.1228268E-11
   5.260000     -2.9941865E-11
   5.280000      1.2680548E-11
   5.300000      4.7526143E-11
   5.320000      5.0707580E-11
   5.340000      2.0416013E-11
   5.360000     -2.2353952E-11
   5.380000     -4.9235963E-11
   5.400000     -4.4113133E-11
   5.420000     -1.2599968E-11
   5.440000      2.4243631E-11
   5.460000      4.5362776E-11
   5.480000      4.1970871E-11
   5.500000      1.9009119E-11
   5.520000     -1.1790229E-11
   5.540000     -3.8913751E-11
   5.560000     -5.2893481E-11
   5.580000     -4.5593092E-11
   5.600000     -1.3268337E-11
   5.620000      3.5611302E-11
   5.640000      7.6034297E-11
   5.660000      7.6137409E-11
   5.680000      2.0946524E-11
   5.700000     -6.6070621E-11
   5.720000     -1.2612895E-10
   5.740000     -1.0109287E-10
   5.760000      1.7484606E-11
   5.780000      1.6503764E-10
   5.800000      2.3467253E-10
   5.820000      1.5135779E-10
   5.840000     -6.0795972E-11
   5.860000     -2.7498673E-10
   5.880000     -3.3865077E-10
   5.900000     -1.8539718E-10
   5.920000      1.0020017E-10
   5.940000      3.2354680E-10
   5.960000      3.1105235E-10
   5.980000      4.3048381E-11
   6.000000     -3.1230180E-10
   6.020000     -5.0068627E-10
   6.040000     -3.5635425E-10
   6.060000      7.2904967E-11
   6.080000      5.4496752E-10
   6.100000      7.8013973E-10
   6.120000      6.4792038E-10
   6.140000      2.5160252E-10
   6.160000     -1.4922651E-10
   6.180000     -3.2185993E-10
   6.200000     -2.1868531E-10
   6.220000     -1.5562920E-12
   6.240000      7.8175293E-11
   6.260000     -1.4504566E-10
   6.280000     -6.3853528E-10
   6.300000     -1.1854497E-09
   6.320000     -1.5005683E-09
   6.340000     -1.3678284E-09
   6.360000     -7.2798001E-10
   6.380000      3.0803821E-10
   6.400000      1.5057612E-09
   6.420000      2.5924447E-09
   6.440000      3.3647667E-09
   6.460000      3.7895069E-09
   6.480000      4.0368913E-09
   6.500000      4.3813633E-09
   6.520000      4.9681450E-09
   6.540000      5.5587481E-09
   6.560000      5.4454281E-09
   6.580000      3.6669419E-09
   6.600000     -5.4050131E-10
   6.620000     -7.3377460E-09
   6.640000     -1.6250841E-08
   6.660000     -2.6630472E-08
   6.680000     -3.8359566E-08
   6.700000     -5.2319045E-08
   6.720000     -7.0218022E-08
   6.740000     -9.3825207E-08
   6.760000     -1.2411796E-07
   6.780000     -1.6101527E-07
   6.800000     -2.0400830E-07
   6.820000     -2.5335223E-07
   6.840000     -3.1101055E-07
   6.860000     -3.8064400E-07
   6.880000     -4.6659787E-07
   6.900000     -5.7261030E-07
   6.920000     -7.0124406E-07
   6.940000     -8.5457776E-07
   6.960000     -1.0357753E-06
   6.980000     -1.2504669E-06
   7.000000     -1.5069631E-06
   7.020000     -1.8151752E-06
   7.040000     -2.1850951E-06
   7.060000     -2.6260630E-06
   7.080000     -3.1474920E-06
   7.100000     -3.7606399E-06
   7.120000     -4.4802341E-06
   7.140000     -5.3248955E-06
   7.160000     -6.3162533E-06
   7.180000     -7.4776563E-06
   7.200000     -8.8336810E-06
   7.220000     -1.0410947E-05
   7.240000     -1.2239680E-05
   7.260000     -1.4354902E-05
   7.280000     -1.6796457E-05
   7.300000     -1.9608162E-05
   7.320000     -2.2837146E-05
   7.340000     -2.6534270E-05
   7.360000     -3.0755553E-05
   7.380000     -3.5563542E-05
   7.400000     -4.1027448E-05
   7.420000     -4.7221845E-05
   7.440000     -5.4225045E-05
   7.460000     -6.2118561E-05
   7.480000     -7.0988295E-05
   7.500000     -8.0926569E-05
   7.520000     -9.2032911E-05
   7.540000     -1.0441252E-04
   7.560000     -1.1817287E-04
   7.580000     -1.3342070E-04
   7.600000     -1.5026133E-04
   7.620000     -1.6880063E-04
   7.640000     -1.8914739E-04
   7.660000     -2.1141315E-04
   7.680000     -2.3570796E-04
   7.700000     -2.6213389E-04
   7.720000     -2.9077925E-04
   7.740000     -3.2171691E-04
   7.760000     -3.5500614E-04
   7.780000     -3.9069515E-04
   7.800000     -4.2882038E-04
   7.820000     -4.6940031E-04
   7.840000     -5.1242695E-04
   7.860000     -5.5785826E-04
   7.880000     -6.0561625E-04
   7.900000     -6.5558846E-04
   7.920000     -7.0763100E-04
   7.940000     -7.6156686E-04
   7.960000     -8.1717933E-04
   7.980000     -8.7420392E-04
   8.000000     -9.3232322E-04
   8.020000     -9.9116738E-04
   8.040000     -1.0503186E-03
   8.060000     -1.1093150E-03
   8.080000     -1.1676505E-03
   8.100000     -1.2247709E-03
   8.120000     -1.2800705E-03
   8.140000     -1.3328930E-03
   8.160000     -1.3825402E-03
   8.180000     -1.4282831E-03
   8.200000     -1.4693699E-03
   8.220000     -1.5050289E-03
   8.240000     -1.5344674E-03
   8.260000     -1.5568745E-03
   8.280000     -1.5714321E-03
   8.300000     -1.5773338E-03
   8.320000     -1.5738040E-03
   8.340000     -1.5601100E-03
   8.360000     -1.5355650E-03
   8.380000     -1.4995274E-03
   8.400000     -1.4514070E-03
   8.420000     -1.3906843E-03
   8.440000     -1.3169372E-03
   8.460000     -1.2298645E-03
   8.480000     -1.1292945E-03
   8.500000     -1.0151785E-03
   8.520000     -8.8758266E-04
   8.540000     -7.4668851E-04
   8.560000     -5.9280964E-04
   8.580000     -4.2641608E-04
   8.600000     -2.4815119E-04
   8.620000     -5.8828311E-05
   8.640000      1.4058934E-04
   8.660000      3.4901153E-04
   8.680000      5.6523056E-04
   8.700000      7.8791525E-04
   8.720000      1.0156004E-03
   8.740000      1.2466889E-03
   8.760000      1.4794753E-03
   8.780000      1.7121823E-03
   8.800000      1.9429931E-03
   8.820000      2.1700680E-03
   8.840000      2.3915456E-03
   8.860000      2.6055477E-03
   8.880000      2.8101972E-03
   8.900000      3.0036597E-03
   8.920000      3.1841821E-03
   8.940000      3.3501200E-03
   8.960000      3.4999426E-03
   8.980000      3.6322295E-03
   9.000000      3.7456790E-03
   9.020000      3.8391384E-03
   9.040000      3.9116484E-03
   9.060000      3.9624721E-03
   9.080000      3.9911009E-03
   9.100000      3.9972235E-03
   9.120000      3.9807023E-03
   9.140000      3.9415681E-03
   9.160000      3.8800531E-03
   9.180000      3.7966287E-03
   9.200000      3.6920258E-03
   9.220000      3.5672043E-03
   9.240000      3.4232908E-03
   9.260000      3.2615166E-03
   9.280000      3.0831993E-03
   9.300000      2.8897724E-03
   9.320000      2.6828302E-03
   9.340000      2.4641431E-03
   9.360000      2.2356089E-03
   9.380000      1.9991619E-03
   9.400000      1.7566894E-03
   9.420000      1.5100030E-03
   9.440000      1.2608755E-03
   9.460000      1.0111008E-03
   9.480000      7.6251570E-04
   9.500000      5.1695138E-04
   9.520000      2.7613825E-04
   9.540000      4.1623265E-05
   9.560000     -1.8524649E-04
   9.580000     -4.0327257E-04
   9.600000     -6.1133568E-04
   9.620000     -8.0836861E-04
   9.640000     -9.9339627E-04
   9.660000     -1.1656119E-03
   9.680000     -1.3244299E-03
   9.700000     -1.4694744E-03
   9.720000     -1.6005167E-03
   9.740000     -1.7174120E-03
   9.760000     -1.8200858E-03
   9.780000     -1.9085732E-03
   9.800000     -1.9830682E-03
   9.820000     -2.0439310E-03
   9.840000     -2.0916397E-03
   9.860000     -2.1267198E-03
   9.880000     -2.1497088E-03
   9.900000     -2.1611787E-03
   9.920000     -2.1617955E-03
   9.940000     -2.1523482E-03
   9.960000     -2.1337098E-03
   9.980000     -2.1067432E-03
   10.00000     -2.0722218E-03
   10.02000     -2.0308271E-03
   10.04000     -1.9832309E-03
   10.06000     -1.9301915E-03
   10.08000     -1.8725845E-03
   10.10000     -1.8113216E-03
   10.12000     -1.7472132E-03
   10.14000     -1.6808708E-03
   10.16000     -1.6127325E-03
   10.18000     -1.5431964E-03
   10.20000     -1.4727630E-03
   10.22000     -1.4020755E-03
   10.24000     -1.3318170E-03
   10.26000     -1.2625384E-03
   10.28000     -1.1945455E-03
   10.30000     -1.1279343E-03
   10.32000     -1.0627520E-03
   10.34000     -9.9916477E-04
   10.36000     -9.3750563E-04
   10.38000     -8.7816804E-04
   10.40000     -8.2142750E-04
   10.42000     -7.6732947E-04
   10.44000     -7.1572990E-04
   10.46000     -6.6645577E-04
   10.48000     -6.1946170E-04
   10.50000     -5.7486520E-04
   10.52000     -5.3284143E-04
   10.54000     -4.9346656E-04
   10.56000     -4.5663584E-04
   10.58000     -4.2211736E-04
   10.60000     -3.8969194E-04
   10.62000     -3.5926292E-04
   10.64000     -3.3085112E-04
   10.66000     -3.0448844E-04
   10.68000     -2.8010772E-04
   10.70000     -2.5752475E-04
   10.72000     -2.3652574E-04
   10.74000     -2.1698057E-04
   10.76000     -1.9887880E-04
   10.78000     -1.8225396E-04
   10.80000     -1.6706101E-04
   10.82000     -1.5311816E-04
   10.84000     -1.4017352E-04
   10.86000     -1.2804914E-04
   10.88000     -1.1674179E-04
   10.90000     -1.0638672E-04
   10.92000     -9.7100296E-05
   10.94000     -8.8822642E-05
   10.96000     -8.1292485E-05
   10.98000     -7.4187279E-05
   11.00000     -6.7328823E-05
   11.02000     -6.0793915E-05
   11.04000     -5.4835647E-05
   11.06000     -4.9665810E-05
   11.08000     -4.5261058E-05
   11.10000     -4.1343763E-05
   11.12000     -3.7558180E-05
   11.14000     -3.3712367E-05
   11.16000     -2.9903087E-05
   11.18000     -2.6427839E-05
   11.20000     -2.3549537E-05
   11.22000     -2.1290862E-05
   11.24000     -1.9411389E-05
   11.26000     -1.7580263E-05
   11.28000     -1.5609941E-05
   11.30000     -1.3574921E-05
   11.32000     -1.1732944E-05
   11.34000     -1.0318377E-05
   11.36000     -9.3698436E-06
   11.38000     -8.7179687E-06
   11.40000     -8.1289954E-06
   11.42000     -7.4816244E-06
   11.44000     -6.8392387E-06
   11.46000     -6.3729376E-06
   11.48000     -6.2117319E-06
   11.50000     -6.3469647E-06
   11.52000     -6.6623543E-06
   11.54000     -7.0512901E-06
   11.56000     -7.5126818E-06
   11.58000     -8.1422040E-06
   11.60000     -9.0313806E-06
   11.62000     -1.0168833E-05
   11.64000     -1.1436178E-05
   11.66000     -1.2707574E-05
   11.68000     -1.3968634E-05
   11.70000     -1.5347878E-05
   11.72000     -1.7023498E-05
   11.74000     -1.9074041E-05
   11.76000     -2.1394941E-05
   11.78000     -2.3757038E-05
   11.80000     -2.5971391E-05
   11.82000     -2.8035856E-05
   11.84000     -3.0146140E-05
   11.86000     -3.2554846E-05
   11.88000     -3.5379835E-05
   11.90000     -3.8505761E-05
   11.92000     -4.1655381E-05
   11.94000     -4.4580775E-05
   11.96000     -4.7234797E-05
   11.98000     -4.9797767E-05
   12.00000     -5.2541705E-05
   12.02000     -5.5632634E-05
   12.04000     -5.9013171E-05
   12.06000     -6.2445411E-05
   12.08000     -6.5676999E-05
   12.10000     -6.8608977E-05
   12.12000     -7.1350354E-05
   12.14000     -7.4130010E-05
   12.16000     -7.7136101E-05
   12.18000     -8.0395199E-05
   12.20000     -8.3766499E-05
   12.22000     -8.7043300E-05
   12.24000     -9.0085829E-05
   12.26000     -9.2899172E-05
   12.28000     -9.5614807E-05
   12.30000     -9.8399018E-05
   12.32000     -1.0135150E-04
   12.34000     -1.0445475E-04
   12.36000     -1.0759736E-04
   12.38000     -1.1064971E-04
   12.40000     -1.1354355E-04
   12.42000     -1.1631006E-04
   12.44000     -1.1905727E-04
   12.46000     -1.2190355E-04
   12.48000     -1.2490871E-04
   12.50000     -1.2804476E-04
   12.52000     -1.3122402E-04
   12.54000     -1.3436492E-04
   12.56000     -1.3745097E-04
   12.58000     -1.4054171E-04
   12.60000     -1.4372857E-04
   12.62000     -1.4706897E-04
   12.64000     -1.5054959E-04
   12.66000     -1.5410782E-04
   12.68000     -1.5769448E-04
   12.70000     -1.6132506E-04
   12.72000     -1.6507380E-04
   12.74000     -1.6901130E-04
   12.76000     -1.7313712E-04
   12.78000     -1.7736916E-04
   12.80000     -1.8160800E-04
   12.82000     -1.8582879E-04
   12.84000     -1.9012063E-04
   12.86000     -1.9462920E-04
   12.88000     -1.9943737E-04
   12.90000     -2.0448014E-04
   12.92000     -2.0957441E-04
   12.94000     -2.1455665E-04
   12.96000     -2.1942622E-04
   12.98000     -2.2437343E-04
   13.00000     -2.2965317E-04
   13.02000     -2.3539003E-04
   13.04000     -2.4146894E-04
   13.06000     -2.4761117E-04
   13.08000     -2.5359238E-04
   13.10000     -2.5943844E-04
   13.12000     -2.6543744E-04
   13.14000     -2.7194328E-04
   13.16000     -2.7911368E-04
   13.18000     -2.8678836E-04
   13.20000     -2.9461470E-04
   13.22000     -3.0233318E-04
   13.24000     -3.1000251E-04
   13.26000     -3.1798051E-04
   13.28000     -3.2666599E-04
   13.30000     -3.3619947E-04
   13.32000     -3.4636218E-04
   13.34000     -3.5676197E-04
   13.36000     -3.6716581E-04
   13.38000     -3.7771446E-04
   13.40000     -3.8884144E-04
   13.42000     -4.0095297E-04
   13.44000     -4.1412251E-04
   13.46000     -4.2805099E-04
   13.48000     -4.4233570E-04
   13.50000     -4.5683977E-04
   13.52000     -4.7186232E-04
   13.54000     -4.8796178E-04
   13.56000     -5.0556241E-04
   13.58000     -5.2465789E-04
   13.60000     -5.4486003E-04
   13.62000     -5.6576979E-04
   13.64000     -5.8738334E-04
   13.66000     -6.1020523E-04
   13.68000     -6.3496386E-04
   13.70000     -6.6214224E-04
   13.72000     -6.9169409E-04
   13.74000     -7.2318007E-04
   13.76000     -7.5623061E-04
   13.78000     -7.9097599E-04
   13.80000     -8.2810235E-04
   13.82000     -8.6847972E-04
   13.84000     -9.1264857E-04
   13.86000     -9.6056965E-04
   13.88000     -1.0118401E-03
   13.90000     -1.0662111E-03
   13.92000     -1.1240019E-03
   13.94000     -1.1860795E-03
   13.96000     -1.2534187E-03
   13.98000     -1.3265886E-03
   14.00000     -1.4055702E-03
   14.02000     -1.4900510E-03
   14.04000     -1.5799601E-03
   14.06000     -1.6758143E-03
   14.08000     -1.7785993E-03
   14.10000     -1.8892777E-03
   14.12000     -2.0083175E-03
   14.14000     -2.1356158E-03
   14.16000     -2.2708760E-03
   14.18000     -2.4141271E-03
   14.20000     -2.5659618E-03
   14.22000     -2.7272943E-03
   14.24000     -2.8988314E-03
   14.26000     -3.0806798E-03
   14.28000     -3.2724137E-03
   14.30000     -3.4735466E-03
   14.32000     -3.6840257E-03
   14.34000     -3.9043464E-03
   14.36000     -4.1351807E-03
   14.38000     -4.3768194E-03
   14.40000     -4.6288683E-03
   14.42000     -4.8904656E-03
   14.44000     -5.1608412E-03
   14.46000     -5.4397862E-03
   14.48000     -5.7276497E-03
   14.50000     -6.0248626E-03
   14.52000     -6.3313595E-03
   14.54000     -6.6463654E-03
   14.56000     -6.9687245E-03
   14.58000     -7.2975163E-03
   14.60000     -7.6324772E-03
   14.62000     -7.9738973E-03
   14.64000     -8.3220648E-03
   14.66000     -8.6767031E-03
   14.68000     -9.0368353E-03
   14.70000     -9.4011901E-03
   14.72000     -9.7688260E-03
   14.74000     -1.0139485E-02
   14.76000     -1.0513401E-02
   14.78000     -1.0890720E-02
   14.80000     -1.1270995E-02
   14.82000     -1.1653132E-02
   14.84000     -1.2035836E-02
   14.86000     -1.2418197E-02
   14.88000     -1.2799946E-02
   14.90000     -1.3181182E-02
   14.92000     -1.3561812E-02
   14.94000     -1.3941125E-02
   14.96000     -1.4317824E-02
   14.98000     -1.4690470E-02
   15.00000     -1.5057945E-02
   15.02000     -1.5419545E-02
   15.04000     -1.5774602E-02
   15.06000     -1.6121915E-02
   15.08000     -1.6459376E-02
   15.10000     -1.6784040E-02
   15.12000     -1.7092511E-02
   15.14000     -1.7381225E-02
   15.16000     -1.7646339E-02
   15.18000     -1.7883224E-02
   15.20000     -1.8085865E-02
   15.22000     -1.8246539E-02
   15.24000     -1.8355906E-02
   15.26000     -1.8403305E-02
   15.28000     -1.8376935E-02
   15.30000     -1.8263625E-02
   15.32000     -1.8048342E-02
   15.34000     -1.7713752E-02
   15.36000     -1.7240109E-02
   15.38000     -1.6605541E-02
   15.40000     -1.5786503E-02
   15.42000     -1.4758053E-02
   15.44000     -1.3493848E-02
   15.46000     -1.1965984E-02
   15.48000     -1.0145029E-02
   15.50000     -8.0004241E-03
   15.52000     -5.5012377E-03
   15.54000     -2.6170150E-03
   15.56000      6.8154291E-04
   15.58000      4.4221296E-03
   15.60000      8.6304341E-03
   15.62000      1.3329552E-02
   15.64000      1.8539069E-02
   15.66000      2.4273951E-02
   15.68000      3.0543447E-02
   15.70000      3.7350260E-02
   15.72000      4.4689920E-02
   15.74000      5.2550279E-02
   15.76000      6.0910869E-02
   15.78000      6.9742173E-02
   15.80000      7.9004876E-02
   15.82000      8.8649310E-02
   15.84000      9.8615304E-02
   15.86000      0.1088323    
   15.88000      0.1192197    
   15.90000      0.1296871    
   15.92000      0.1401350    
   15.94000      0.1504548    
   15.96000      0.1605303    
   15.98000      0.1702380    
   16.00000      0.1794495    
   16.02000      0.1880324    
   16.04000      0.1958528    
   16.06000      0.2027763    
   16.08000      0.2086701    
   16.10000      0.2134050    
   16.12000      0.2168574    
   16.14000      0.2189117    
   16.16000      0.2194623    
   16.18000      0.2184156    
   16.20000      0.2156920    
   16.22000      0.2112275    
   16.24000      0.2049754    
   16.26000      0.1969079    
   16.28000      0.1870169    
   16.30000      0.1753152    
   16.32000      0.1618372    
   16.34000      0.1466389    
   16.36000      0.1297979    
   16.38000      0.1114135    
   16.40000      9.1605455E-02
   16.42000      7.0513085E-02
   16.44000      4.8293974E-02
   16.46000      2.5122127E-02
   16.48000      1.1862096E-03
   16.50000     -2.3312604E-02
   16.52000     -4.8162989E-02
   16.54000     -7.3146127E-02
   16.56000     -9.8038547E-02
   16.58000     -0.1226151    
   16.60000     -0.1466518    
   16.62000     -0.1699286    
   16.64000     -0.1922322    
   16.66000     -0.2133587    
   16.68000     -0.2331162    
   16.70000     -0.2513273    
   16.72000     -0.2678319    
   16.74000     -0.2824883    
   16.76000     -0.2951759    
   16.78000     -0.3057951    
   16.80000     -0.3142694    
   16.82000     -0.3205458    
   16.84000     -0.3245950    
   16.86000     -0.3264124    
   16.88000     -0.3260167    
   16.90000     -0.3234494    
   16.92000     -0.3187740    