  -2.400000      0.0000000E+00
  -2.380000      0.0000000E+00
  -2.360000      0.0000000E+00
  -2.340000      0.0000000E+00
  -2.320000      0.0000000E+00
  -2.300000      0.0000000E+00
  -2.280000      0.0000000E+00
  -2.260000      0.0000000E+00
  -2.240000      0.0000000E+00
  -2.220000      0.0000000E+00
  -2.200000      0.0000000E+00
  -2.180000      0.0000000E+00
  -2.160000      0.0000000E+00
  -2.140000      0.0000000E+00
  -2.120000      0.0000000E+00
  -2.100000      0.0000000E+00
  -2.080000      0.0000000E+00
  -2.060000      0.0000000E+00
  -2.040000      0.0000000E+00
  -2.020000      0.0000000E+00
  -2.000000      0.0000000E+00
  -1.980000      0.0000000E+00
  -1.960000      0.0000000E+00
  -1.940000      0.0000000E+00
  -1.920000      0.0000000E+00
  -1.900000      0.0000000E+00
  -1.880000      0.0000000E+00
  -1.860000      0.0000000E+00
  -1.840000      0.0000000E+00
  -1.820000      0.0000000E+00
  -1.800000      0.0000000E+00
  -1.780000      0.0000000E+00
  -1.760000      0.0000000E+00
  -1.740000      0.0000000E+00
  -1.720000      0.0000000E+00
  -1.700000      0.0000000E+00
  -1.680000      0.0000000E+00
  -1.660000      0.0000000E+00
  -1.640000      0.0000000E+00
  -1.620000      0.0000000E+00
  -1.600000      0.0000000E+00
  -1.580000      0.0000000E+00
  -1.560000      0.0000000E+00
  -1.540000      0.0000000E+00
  -1.520000      0.0000000E+00
  -1.500000      0.0000000E+00
  -1.480000      0.0000000E+00
  -1.460000      0.0000000E+00
  -1.440000      0.0000000E+00
  -1.420000      0.0000000E+00
  -1.400000      0.0000000E+00
  -1.380000      0.0000000E+00
  -1.360000      0.0000000E+00
  -1.340000      0.0000000E+00
  -1.320000      0.0000000E+00
  -1.300000      0.0000000E+00
  -1.280000      0.0000000E+00
  -1.260000      0.0000000E+00
  -1.240000      0.0000000E+00
  -1.220000      0.0000000E+00
  -1.200000      0.0000000E+00
  -1.180000      0.0000000E+00
  -1.160000      0.0000000E+00
  -1.140000      0.0000000E+00
  -1.120000      0.0000000E+00
  -1.100000      0.0000000E+00
  -1.080000      0.0000000E+00
  -1.060000      0.0000000E+00
  -1.040000      0.0000000E+00
  -1.020000      0.0000000E+00
  -1.000000      0.0000000E+00
 -0.9800000      0.0000000E+00
 -0.9600000      0.0000000E+00
 -0.9400000      0.0000000E+00
 -0.9200000      0.0000000E+00
 -0.9000000      0.0000000E+00
 -0.8800000      0.0000000E+00
 -0.8600000      0.0000000E+00
 -0.8400000      0.0000000E+00
 -0.8200000      0.0000000E+00
 -0.8000000      0.0000000E+00
 -0.7800000      0.0000000E+00
 -0.7600000      0.0000000E+00
 -0.7400000      0.0000000E+00
 -0.7200000      0.0000000E+00
 -0.7000000      0.0000000E+00
 -0.6800000      0.0000000E+00
 -0.6600000      0.0000000E+00
 -0.6400000      0.0000000E+00
 -0.6200000      0.0000000E+00
 -0.6000000      0.0000000E+00
 -0.5800000      0.0000000E+00
 -0.5600000      0.0000000E+00
 -0.5400000      0.0000000E+00
 -0.5200000      0.0000000E+00
 -0.5000000      0.0000000E+00
 -0.4800000      0.0000000E+00
 -0.4600000      0.0000000E+00
 -0.4400000      0.0000000E+00
 -0.4200000      0.0000000E+00
 -0.4000000      0.0000000E+00
 -0.3800000      0.0000000E+00
 -0.3600000      0.0000000E+00
 -0.3400000      0.0000000E+00
 -0.3200000      0.0000000E+00
 -0.3000000      0.0000000E+00
 -0.2800000      0.0000000E+00
 -0.2600000      0.0000000E+00
 -0.2400000      0.0000000E+00
 -0.2200000      0.0000000E+00
 -0.2000000      0.0000000E+00
 -0.1800000      0.0000000E+00
 -0.1600000      0.0000000E+00
 -0.1400000      2.0690779E-38
 -0.1200000      3.1814046E-38
 -0.1000000      0.0000000E+00
 -7.9999998E-02 -4.6252364E-38
 -5.9999999E-02 -1.2729085E-37
 -3.9999999E-02 -2.0485687E-38
 -2.0000000E-02  3.9964494E-37
  0.0000000E+00  7.0790132E-37
  2.0000000E-02  2.6952019E-37
  3.9999999E-02 -1.4939425E-36
  5.9999999E-02 -2.9210032E-36
  7.9999998E-02 -8.8181878E-37
  0.1000000      5.7641137E-36
  0.1200000      1.1125878E-35
  0.1400000      4.8048848E-36
  0.1600000     -1.6438633E-35
  0.1800000     -3.8563154E-35
  0.2000000     -2.9816489E-35
  0.2200000      3.3519362E-35
  0.2400000      1.2280170E-34
  0.2600000      1.4138205E-34
  0.2800000     -1.8694580E-35
  0.3000000     -3.3769400E-34
  0.3200000     -5.4902281E-34
  0.3400000     -2.3458321E-34
  0.3600000      7.5936600E-34
  0.3800000      1.8113400E-33
  0.4000000      1.5326274E-33
  0.4200000     -1.1470302E-33
  0.4400000     -5.1593589E-33
  0.4600000     -6.4746964E-33
  0.4800000     -4.6327334E-34
  0.5000000      1.2455889E-32
  0.5200000      2.2156665E-32
  0.5400000      1.2448651E-32
  0.5600000     -2.3474089E-32
  0.5800000     -6.4614626E-32
  0.6000000     -6.2335825E-32
  0.6200000      2.2911591E-32
  0.6400000      1.6118838E-31
  0.6600000      2.2534861E-31
  0.6800000      6.3062980E-32
  0.7000000     -3.3117416E-31
  0.7200000     -6.7292749E-31
  0.7400000     -4.8350913E-31
  0.7600000      4.8091529E-31
  0.7800000      1.7120473E-30
  0.8000000      1.9186910E-30
  0.8200000     -5.1898158E-32
  0.8400000     -3.6656112E-30
  0.8600000     -5.9133407E-30
  0.8800000     -2.9038461E-30
  0.9000000      6.1249267E-30
  0.9200000      1.5284246E-29
  0.9400000      1.3700446E-29
  0.9600000     -5.4410684E-30
  0.9800000     -3.3475464E-29
   1.000000     -4.4309235E-29
   1.020000     -1.1716262E-29
   1.040000      5.9778873E-29
   1.060000      1.1662389E-28
   1.080000      8.1730719E-29
   1.100000     -7.3335789E-29
   1.120000     -2.5924594E-28
   1.140000     -2.8565648E-28
   1.160000     -6.8177318E-30
   1.180000      4.7948169E-28
   1.200000      7.7048272E-28
   1.220000      4.0159722E-28
   1.240000     -6.7122356E-28
   1.260000     -1.7329599E-27
   1.280000     -1.5954781E-27
   1.300000      3.9361270E-28
   1.320000      3.2691101E-27
   1.340000      4.4535335E-27
   1.360000      1.5522160E-27
   1.380000     -4.8967327E-27
   1.400000     -1.0143380E-26
   1.420000     -7.7526530E-27
   1.440000      4.4527978E-27
   1.460000      1.9405404E-26
   1.480000      2.2767572E-26
   1.500000      3.9483105E-27
   1.520000     -3.0302822E-26
   1.540000     -5.2811785E-26
   1.560000     -3.2894600E-26
   1.580000      3.3137708E-26
   1.600000      1.0250272E-25
   1.620000      1.0446611E-25
   1.640000     -1.1831135E-27
   1.660000     -1.6487240E-25
   1.680000     -2.4900954E-25
   1.700000     -1.2261816E-25
   1.720000      1.9909567E-25
   1.740000      4.9109722E-25
   1.760000      4.3772634E-25
   1.780000     -9.0890027E-26
   1.800000     -8.0705509E-25
   1.820000     -1.0802955E-24
   1.840000     -4.0203662E-25
   1.860000      1.0333705E-24
   1.880000      2.1645594E-24
   1.900000      1.6960515E-24
   1.920000     -7.1066379E-25
   1.940000     -3.6141402E-24
   1.960000     -4.3546321E-24
   1.980000     -1.1214017E-24
   2.000000      4.8138588E-24
   2.020000      8.8616698E-24
   2.040000      6.0866985E-24
   2.060000     -4.0389880E-24
   2.080000     -1.4999621E-23
   2.100000     -1.6359729E-23
   2.120000     -2.2648834E-24
   2.140000      2.0612431E-23
   2.160000      3.3842032E-23
   2.180000      2.0005150E-23
   2.200000     -1.9664728E-23
   2.220000     -5.8011518E-23
   2.240000     -5.6964132E-23
   2.260000     -4.3534904E-26
   2.280000      8.1882683E-23
   2.300000      1.1999301E-22
   2.320000      5.8290365E-23
   2.340000     -8.6108882E-23
   2.360000     -2.0831606E-22
   2.380000     -1.8064866E-22
   2.400000      3.2572846E-23
   2.420000      3.0188758E-22
   2.440000      3.9026744E-22
   2.460000      1.3927925E-22
   2.480000     -3.4528290E-22
   2.500000     -6.8976887E-22
   2.520000     -5.0794963E-22
   2.540000      2.3023710E-22
   2.560000      1.0306467E-21
   2.580000      1.1495981E-21
   2.600000      2.1590126E-22
   2.620000     -1.2703360E-21
   2.640000     -2.0926238E-21
   2.660000     -1.2223595E-21
   2.680000      1.1238183E-21
   2.700000      3.2392587E-21
   2.720000      3.0274827E-21
   2.740000     -1.2873430E-22
   2.760000     -4.2553887E-21
   2.780000     -5.7694483E-21
   2.800000     -2.3431718E-21
   2.820000      4.4473745E-21
   2.840000      9.3016662E-21
   2.860000      6.9879814E-21
   2.880000     -2.6635290E-21
   2.900000     -1.2935364E-20
   2.920000     -1.4345200E-20
   2.940000     -2.7281735E-21
   2.960000      1.5124973E-20
   2.980000      2.4402784E-20
   3.000000      1.3712028E-20
   3.020000     -1.3130355E-20
   3.040000     -3.5972867E-20
   3.060000     -3.2217984E-20
   3.080000      2.7502073E-21
   3.100000      4.5789103E-20
   3.120000      5.9233971E-20
   3.140000      2.1652785E-20
   3.160000     -4.7362187E-20
   3.180000     -9.3193522E-20
   3.200000     -6.6452853E-20
   3.220000      2.9787608E-20
   3.240000      1.2738628E-19
   3.260000      1.3678343E-19
   3.280000      2.3032158E-20
   3.300000     -1.4614677E-19
   3.320000     -2.3223504E-19
   3.340000     -1.3159173E-19
   3.360000      1.1994039E-19
   3.380000      3.3859904E-19
   3.400000      3.1566634E-19
   3.420000     -1.2049491E-21
   3.440000     -4.1447079E-19
   3.460000     -5.8022822E-19
   3.480000     -2.7339503E-19
   3.500000      3.7501642E-19
   3.520000      8.8806793E-19
   3.540000      7.6435666E-19
   3.560000     -8.2424961E-20
   3.580000     -1.1204147E-18
   3.600000     -1.4837503E-18
   3.620000     -6.3927733E-19
   3.640000      1.0381562E-18
   3.660000      2.3184894E-18
   3.680000      1.9426864E-18
   3.700000     -2.7102433E-19
   3.720000     -2.9334606E-18
   3.740000     -3.8291067E-18
   3.760000     -1.6218366E-18
   3.780000      2.6927182E-18
   3.800000      5.9532094E-18
   3.820000      4.9669623E-18
   3.840000     -6.7778037E-19
   3.860000     -7.4100063E-18
   3.880000     -9.6381356E-18
   3.900000     -4.0859356E-18
   3.920000      6.6375065E-18
   3.940000      1.4626686E-17
   3.960000      1.2120434E-17
   3.980000     -1.6264844E-18
   4.000000     -1.7720503E-17
   4.020000     -2.2774896E-17
   4.040000     -9.4318972E-18
   4.060000      1.5565579E-17
   4.080000      3.3542528E-17
   4.100000      2.7112226E-17
   4.120000     -4.3057245E-18
   4.140000     -3.9732933E-17
   4.160000     -4.9548966E-17
   4.180000     -1.9143161E-17
   4.200000      3.4792841E-17
   4.220000      7.1350780E-17
   4.240000      5.5198325E-17
   4.260000     -1.1629141E-17
   4.280000     -8.3138024E-17
   4.300000     -9.9323739E-17
   4.320000     -3.4691267E-17
   4.340000      7.2620112E-17
   4.360000      1.4030001E-16
   4.380000      1.0315349E-16
   4.400000     -2.7988960E-17
   4.420000     -1.6066287E-16
   4.440000     -1.8354591E-16
   4.460000     -5.7057701E-17
   4.480000      1.4005943E-16
   4.500000      2.5563690E-16
   4.520000      1.7877186E-16
   4.540000     -6.0146460E-17
   4.560000     -2.9056729E-16
   4.580000     -3.2003891E-16
   4.600000     -9.0206918E-17
   4.620000      2.5295554E-16
   4.640000      4.4633549E-16
   4.660000      3.0687683E-16
   4.680000     -1.0617535E-16
   4.700000     -5.0167035E-16
   4.720000     -5.5663924E-16
   4.740000     -1.7197073E-16
   4.760000      4.1391530E-16
   4.780000      7.6455767E-16
   4.800000      5.6295244E-16
   4.820000     -1.1911488E-16
   4.840000     -8.1873945E-16
   4.860000     -9.8621761E-16
   4.880000     -4.0256715E-16
   4.900000      5.9747534E-16
   4.920000      1.2981867E-15
   4.940000      1.0979750E-15
   4.960000     -3.8320536E-18
   4.980000     -1.3037465E-15
   5.000000     -1.8172698E-15
   5.020000     -9.9385849E-16
   5.040000      7.7418748E-16
   5.060000      2.2790720E-15
   5.080000      2.2834966E-15
   5.100000      4.8417425E-16
   5.120000     -2.0624640E-15
   5.140000     -3.4960173E-15
   5.160000     -2.4568538E-15
   5.180000      7.3345345E-16
   5.200000      3.9802464E-15
   5.220000      4.7187638E-15
   5.240000      1.8662137E-15
   5.260000     -3.0094128E-15
   5.280000     -6.4136009E-15
   5.300000     -5.3526833E-15
   5.320000      1.5547138E-16
   5.340000      6.5156176E-15
   5.360000      8.7856443E-15
   5.380000      4.4284145E-15
   5.400000     -4.1956003E-15
   5.420000     -1.0875577E-14
   5.440000     -9.9264011E-15
   5.460000     -8.9291916E-16
   5.480000      1.0226411E-14
   5.500000      1.4827469E-14
   5.520000      8.2826193E-15
   5.540000     -5.7228129E-15
   5.560000     -1.7003228E-14
   5.580000     -1.6240291E-14
   5.600000     -2.6281289E-15
   5.620000      1.4446069E-14
   5.640000      2.1823712E-14
   5.660000      1.2798532E-14
   5.680000     -6.8308820E-15
   5.700000     -2.2312655E-14
   5.720000     -2.1144834E-14
   5.740000     -3.4013059E-15
   5.760000      1.7460581E-14
   5.780000      2.4791665E-14
   5.800000      1.2302700E-14
   5.820000     -1.0163418E-14
   5.840000     -2.4097455E-14
   5.860000     -1.7610603E-14
   5.880000      4.0459804E-15
   5.900000      2.2196527E-14
   5.920000      2.0486039E-14
   5.940000     -3.4370879E-16
   5.960000     -2.1933152E-14
   5.980000     -2.3782588E-14
   6.000000     -2.1837877E-15
   6.020000      2.4427731E-14
   6.040000      3.0250416E-14
   6.060000      5.8435833E-15
   6.080000     -3.0134190E-14
   6.100000     -4.3966522E-14
   6.120000     -1.6450425E-14
   6.140000      3.5819309E-14
   6.160000      6.8650381E-14
   6.180000      4.5648876E-14
   6.200000     -2.6588225E-14
   6.220000     -9.5313663E-14
   6.240000     -9.9048482E-14
   6.260000     -1.9655938E-14
   6.280000      9.3818345E-14
   6.300000      1.5462733E-13
   6.320000      1.0429118E-13
   6.340000     -3.5026693E-14
   6.360000     -1.6703517E-13
   6.380000     -1.8877432E-13
   6.400000     -7.1282715E-14
   6.420000      1.0996669E-13
   6.440000      2.2383244E-13
   6.460000      1.7969548E-13
   6.480000     -5.2872712E-16
   6.500000     -1.9175338E-13
   6.520000     -2.5355792E-13
   6.540000     -1.3328645E-13
   6.560000      9.2182474E-14
   6.580000      2.6785879E-13
   6.600000      2.6840314E-13
   6.620000      8.5017320E-14
   6.640000     -1.6847100E-13
   6.660000     -3.3106626E-13
   6.680000     -2.9722286E-13
   6.700000     -7.9799943E-14
   6.720000      2.0054382E-13
   6.740000      3.8522614E-13
   6.760000      3.6333344E-13
   6.780000      1.3057976E-13
   6.800000     -2.0195973E-13
   6.820000     -4.5374354E-13
   6.840000     -4.6328132E-13
   6.860000     -1.8680568E-13
   6.880000      2.4671400E-13
   6.900000      5.7743757E-13
   6.920000      5.6104746E-13
   6.940000      1.4795855E-13
   6.960000     -4.3277377E-13
   6.980000     -7.8149195E-13
   7.000000     -5.9666237E-13
   7.020000      7.0833564E-14
   7.040000      7.8868682E-13
   7.060000      1.0138338E-12
   7.080000      5.0276883E-13
   7.100000     -4.4926237E-13
   7.120000     -1.1671435E-12
   7.140000     -1.0854942E-12
   7.160000     -2.1213389E-13
   7.180000      8.2350825E-13
   7.200000      1.2289321E-12
   7.220000      6.8610406E-13
   7.240000     -3.5419283E-13
   7.260000     -1.0086301E-12
   7.280000     -6.9871328E-13
   7.300000      3.1950310E-13
   7.320000      1.1261547E-12
   7.340000      9.2739564E-13
   7.360000     -1.9186975E-13
   7.380000     -1.2584213E-12
   7.400000     -1.2523040E-12
   7.420000     -1.1704187E-13
   7.440000      1.0188071E-12
   7.460000      7.7827978E-13
   7.480000     -1.0519178E-12
   7.500000     -2.9272799E-12
   7.520000     -2.5668549E-12
   7.540000      9.7709796E-13
   7.560000      5.9078567E-12
   7.580000      8.4440432E-12
   7.600000      5.6252399E-12
   7.620000     -1.8585001E-12
   7.640000     -9.3298641E-12
   7.660000     -1.1152713E-11
   7.680000     -5.2374572E-12
   7.700000      4.5366245E-12
   7.720000      1.0457627E-11
   7.740000      6.7348202E-12
   7.760000     -5.3061409E-12
   7.780000     -1.7026748E-11
   7.800000     -1.8289054E-11
   7.820000     -5.4598986E-12
   7.840000      1.4618518E-11
   7.860000      2.8530518E-11
   7.880000      2.6012147E-11
   7.900000      8.4305818E-12
   7.920000     -1.0971494E-11
   7.940000     -1.6299484E-11
   7.960000     -1.4914956E-12
   7.980000      2.3448748E-11
   8.000000      3.8059438E-11
   8.020000      2.5723422E-11
   8.040000     -1.3517084E-11
   8.060000     -6.1447833E-11
   8.080000     -9.3248603E-11
   8.100000     -9.4019285E-11
   8.120000     -6.8048477E-11
   8.140000     -3.3804386E-11
   8.160000     -8.4496854E-12
   8.180000      6.1469250E-12
   8.200000      2.4888655E-11
   8.220000      6.6958647E-11
   8.240000      1.3871185E-10
   8.260000      2.2492930E-10
   8.280000      2.9501010E-10
   8.300000      3.1933975E-10
   8.320000      2.8377134E-10
   8.340000      1.9249785E-10
   8.360000      5.9322817E-11
   8.380000     -1.0370001E-10
   8.400000     -2.9032241E-10
   8.420000     -4.9425830E-10
   8.440000     -6.9979733E-10
   8.460000     -8.7798663E-10
   8.480000     -9.9196251E-10
   8.500000     -1.0065686E-09
   8.520000     -8.9402585E-10
   8.540000     -6.3232952E-10
   8.560000     -2.0157970E-10
   8.580000      4.1290371E-10
   8.600000      1.2074500E-09
   8.620000      2.1441255E-09
   8.640000      3.1447231E-09
   8.660000      4.1013184E-09
   8.680000      4.8962225E-09
   8.700000      5.4143383E-09
   8.720000      5.5350124E-09
   8.740000      5.1071773E-09
   8.760000      3.9276653E-09
   8.780000      1.7435622E-09
   8.800000     -1.7178688E-09
   8.820000     -6.7112182E-09
   8.840000     -1.3456335E-08
   8.860000     -2.2159753E-08
   8.880000     -3.3064111E-08
   8.900000     -4.6496378E-08
   8.920000     -6.2890486E-08
   8.940000     -8.2784950E-08
   8.960000     -1.0682044E-07
   8.980000     -1.3576475E-07
   9.000000     -1.7057073E-07
   9.020000     -2.1244485E-07
   9.040000     -2.6289538E-07
   9.060000     -3.2375070E-07
   9.080000     -3.9716835E-07
   9.100000     -4.8567102E-07
   9.120000     -5.9222663E-07
   9.140000     -7.2035175E-07
   9.160000     -8.7420267E-07
   9.180000     -1.0586298E-06
   9.200000     -1.2792221E-06
   9.220000     -1.5423950E-06
   9.240000     -1.8555594E-06
   9.260000     -2.2273455E-06
   9.280000     -2.6678024E-06
   9.300000     -3.1885065E-06
   9.320000     -3.8025830E-06
   9.340000     -4.5247421E-06
   9.360000     -5.3714484E-06
   9.380000     -6.3612779E-06
   9.400000     -7.5153716E-06
   9.420000     -8.8578181E-06
   9.440000     -1.0415831E-05
   9.460000     -1.2219741E-05
   9.480000     -1.4302987E-05
   9.500000     -1.6702286E-05
   9.520000     -1.9458084E-05
   9.540000     -2.2615113E-05
   9.560000     -2.6222777E-05
   9.580000     -3.0335197E-05
   9.600000     -3.5010933E-05
   9.620000     -4.0312658E-05
   9.640000     -4.6307097E-05
   9.660000     -5.3065294E-05
   9.680000     -6.0662991E-05
   9.700000     -6.9180809E-05
   9.720000     -7.8703844E-05
   9.740000     -8.9320863E-05
   9.760000     -1.0112325E-04
   9.780000     -1.1420426E-04
   9.800000     -1.2865850E-04
   9.820000     -1.4458151E-04
   9.840000     -1.6206884E-04
   9.860000     -1.8121467E-04
   9.880000     -2.0210982E-04
   9.900000     -2.2483972E-04
   9.920000     -2.4948260E-04
   9.940000     -2.7610772E-04
   9.960000     -3.0477394E-04
   9.980000     -3.3552744E-04
   10.00000     -3.6839920E-04
   10.02000     -4.0340208E-04
   10.04000     -4.4052812E-04
   10.06000     -4.7974594E-04
   10.08000     -5.2099832E-04
   10.10000     -5.6419976E-04
   10.12000     -6.0923345E-04
   10.14000     -6.5594848E-04
   10.16000     -7.0415740E-04
   10.18000     -7.5363478E-04
   10.20000     -8.0411561E-04
   10.22000     -8.5529510E-04
   10.24000     -9.0682768E-04
   10.26000     -9.5832610E-04
   10.28000     -1.0093607E-03
   10.30000     -1.0594598E-03
   10.32000     -1.1081118E-03
   10.34000     -1.1547685E-03
   10.36000     -1.1988482E-03
   10.38000     -1.2397398E-03
   10.40000     -1.2768062E-03
   10.42000     -1.3093875E-03
   10.44000     -1.3368074E-03
   10.46000     -1.3583809E-03
   10.48000     -1.3734243E-03
   10.50000     -1.3812642E-03
   10.52000     -1.3812465E-03
   10.54000     -1.3727434E-03
   10.56000     -1.3551614E-03
   10.58000     -1.3279507E-03
   10.60000     -1.2906159E-03
   10.62000     -1.2427269E-03
   10.64000     -1.1839309E-03
   10.66000     -1.1139604E-03
   10.68000     -1.0326413E-03
   10.70000     -9.3989924E-04
   10.72000     -8.3576696E-04
   10.74000     -7.2039064E-04
   10.76000     -5.9403613E-04
   10.78000     -4.5709327E-04
   10.80000     -3.1007780E-04
   10.82000     -1.5363026E-04
   10.84000      1.1485776E-05
   10.86000      1.8438752E-04
   10.88000      3.6407731E-04
   10.90000      5.4944860E-04
   10.92000      7.3929509E-04
   10.94000      9.3232165E-04
   10.96000      1.1271563E-03
   10.98000      1.3223623E-03
   11.00000      1.5164517E-03
   11.02000      1.7078985E-03
   11.04000      1.8951567E-03
   11.06000      2.0766796E-03
   11.08000      2.2509405E-03
   11.10000      2.4164501E-03
   11.12000      2.5717723E-03
   11.14000      2.7155387E-03
   11.16000      2.8464617E-03
   11.18000      2.9633543E-03
   11.20000      3.0651491E-03
   11.22000      3.1509143E-03
   11.24000      3.2198678E-03
   11.26000      3.2713800E-03
   11.28000      3.3049770E-03
   11.30000      3.3203419E-03
   11.32000      3.3173221E-03
   11.34000      3.2959364E-03
   11.36000      3.2563803E-03
   11.38000      3.1990251E-03
   11.40000      3.1244066E-03
   11.42000      3.0332124E-03
   11.44000      2.9262679E-03
   11.46000      2.8045271E-03
   11.48000      2.6690674E-03
   11.50000      2.5210800E-03
   11.52000      2.3618555E-03
   11.54000      2.1927641E-03
   11.56000      2.0152326E-03
   11.58000      1.8307244E-03
   11.60000      1.6407237E-03
   11.62000      1.4467242E-03
   11.64000      1.2502165E-03
   11.66000      1.0526718E-03
   11.68000      8.5552240E-04
   11.70000      6.6014624E-04
   11.72000      4.6785289E-04
   11.74000      2.7987527E-04
   11.76000      9.7361823E-05
   11.78000     -7.8633449E-05
   11.80000     -2.4716192E-04
   11.82000     -4.0738957E-04
   11.84000     -5.5860012E-04
   11.86000     -7.0019113E-04
   11.88000     -8.3166797E-04
   11.90000     -9.5264101E-04
   11.92000     -1.0628299E-03
   11.94000     -1.1620701E-03
   11.96000     -1.2503162E-03
   11.98000     -1.3276312E-03
   12.00000     -1.3941686E-03
   12.02000     -1.4501512E-03
   12.04000     -1.4958589E-03
   12.06000     -1.5316324E-03
   12.08000     -1.5578824E-03
   12.10000     -1.5750938E-03
   12.12000     -1.5838136E-03
   12.14000     -1.5846220E-03
   12.16000     -1.5781054E-03
   12.18000     -1.5648429E-03
   12.20000     -1.5454113E-03
   12.22000     -1.5204014E-03
   12.24000     -1.4904271E-03
   12.26000     -1.4561145E-03
   12.28000     -1.4180767E-03
   12.30000     -1.3768867E-03
   12.32000     -1.3330678E-03
   12.34000     -1.2871018E-03
   12.36000     -1.2394496E-03
   12.38000     -1.1905638E-03
   12.40000     -1.1408832E-03
   12.42000     -1.0908153E-03
   12.44000     -1.0407190E-03
   12.46000     -9.9089975E-04
   12.48000     -9.4162027E-04
   12.50000     -8.9311512E-04
   12.52000     -8.4559940E-04
   12.54000     -7.9926499E-04
   12.56000     -7.5427192E-04
   12.58000     -7.1074488E-04
   12.60000     -6.6877832E-04
   12.62000     -6.2844646E-04
   12.64000     -5.8980973E-04
   12.66000     -5.5290951E-04
   12.68000     -5.1775959E-04
   12.70000     -4.8434304E-04
   12.72000     -4.5262353E-04
   12.74000     -4.2256530E-04
   12.76000     -3.9414750E-04
   12.78000     -3.6735975E-04
   12.80000     -3.4218028E-04
   12.82000     -3.1855292E-04
   12.84000     -2.9638311E-04
   12.86000     -2.7556065E-04
   12.88000     -2.5599488E-04
   12.90000     -2.3763714E-04
   12.92000     -2.2047144E-04
   12.94000     -2.0447867E-04
   12.96000     -1.8959976E-04
   12.98000     -1.7572739E-04
   13.00000     -1.6273496E-04
   13.02000     -1.5052353E-04
   13.04000     -1.3905234E-04
   13.06000     -1.2832962E-04
   13.08000     -1.1836925E-04
   13.10000     -1.0914461E-04
   13.12000     -1.0057360E-04
   13.14000     -9.2545823E-05
   13.16000     -8.4971412E-05
   13.18000     -7.7815741E-05
   13.20000     -7.1094939E-05
   13.22000     -6.4837397E-05
   13.24000     -5.9040580E-05
   13.26000     -5.3655021E-05
   13.28000     -4.8605063E-05
   13.30000     -4.3828233E-05
   13.32000     -3.9302555E-05
   13.34000     -3.5042518E-05
   13.36000     -3.1069998E-05
   13.38000     -2.7385187E-05
   13.40000     -2.3960110E-05
   13.42000     -2.0756834E-05
   13.44000     -1.7751898E-05
   13.46000     -1.4944619E-05
   13.48000     -1.2342870E-05
   13.50000     -9.9410363E-06
   13.52000     -7.7125878E-06
   13.54000     -5.6263943E-06
   13.56000     -3.6730460E-06
   13.58000     -1.8756161E-06
   13.60000     -2.7057990E-07
   13.62000      1.1289043E-06
   13.64000      2.3562413E-06
   13.66000      3.4769259E-06
   13.68000      4.5421584E-06
   13.70000      5.5456444E-06
   13.72000      6.4214055E-06
   13.74000      7.0908268E-06
   13.76000      7.5267967E-06
   13.78000      7.7846471E-06
   13.80000      7.9712036E-06
   13.82000      8.1703765E-06
   13.84000      8.3801096E-06
   13.86000      8.5107240E-06
   13.88000      8.4499452E-06
   13.90000      8.1483149E-06
   13.92000      7.6607612E-06
   13.94000      7.1112786E-06
   13.96000      6.6053876E-06
   13.98000      6.1552978E-06
   14.00000      5.6740214E-06
   14.02000      5.0430767E-06
   14.04000      4.2029737E-06
   14.06000      3.1988038E-06
   14.08000      2.1477529E-06
   14.10000      1.1546026E-06
   14.12000      2.3984700E-07
   14.14000     -6.6630082E-07
   14.16000     -1.6623432E-06
   14.18000     -2.7961685E-06
   14.20000     -4.0293189E-06
   14.22000     -5.2698751E-06
   14.24000     -6.4444025E-06
   14.26000     -7.5500757E-06
   14.28000     -8.6465925E-06
   14.30000     -9.7978818E-06
   14.32000     -1.1014251E-05
   14.34000     -1.2243436E-05
   14.36000     -1.3416510E-05
   14.38000     -1.4507584E-05
   14.40000     -1.5554560E-05
   14.42000     -1.6622005E-05
   14.44000     -1.7738001E-05
   14.46000     -1.8861196E-05
   14.48000     -1.9910069E-05
   14.50000     -2.0832871E-05
   14.52000     -2.1658891E-05
   14.54000     -2.2483538E-05
   14.56000     -2.3393559E-05
   14.58000     -2.4391096E-05
   14.60000     -2.5381372E-05
   14.62000     -2.6240314E-05
   14.64000     -2.6913089E-05
   14.66000     -2.7465234E-05
   14.68000     -2.8041424E-05
   14.70000     -2.8758646E-05
   14.72000     -2.9614672E-05
   14.74000     -3.0484689E-05
   14.76000     -3.1212734E-05
   14.78000     -3.1730629E-05
   14.80000     -3.2113414E-05
   14.82000     -3.2527030E-05
   14.84000     -3.3106073E-05
   14.86000     -3.3853958E-05
   14.88000     -3.4641766E-05
   14.90000     -3.5306919E-05
   14.92000     -3.5776487E-05
   14.94000     -3.6121055E-05
   14.96000     -3.6498848E-05
   14.98000     -3.7034490E-05
   15.00000     -3.7726357E-05
   15.02000     -3.8452949E-05
   15.04000     -3.9070699E-05
   15.06000     -3.9524803E-05
   15.08000     -3.9886723E-05
   15.10000     -4.0291961E-05
   15.12000     -4.0831168E-05
   15.14000     -4.1482726E-05
   15.16000     -4.2138672E-05
   15.18000     -4.2698619E-05
   15.20000     -4.3152220E-05
   15.22000     -4.3582593E-05
   15.24000     -4.4090826E-05
   15.26000     -4.4707518E-05
   15.28000     -4.5367142E-05
   15.30000     -4.5966939E-05
   15.32000     -4.6459627E-05
   15.34000     -4.6899982E-05
   15.36000     -4.7403493E-05
   15.38000     -4.8049940E-05
   15.40000     -4.8812875E-05
   15.42000     -4.9576884E-05
   15.44000     -5.0232331E-05
   15.46000     -5.0771479E-05
   15.48000     -5.1305225E-05
   15.50000     -5.1982141E-05
   15.52000     -5.2871408E-05
   15.54000     -5.3903786E-05
   15.56000     -5.4921438E-05
   15.58000     -5.5801480E-05
   15.60000     -5.6557179E-05
   15.62000     -5.7335190E-05
   15.64000     -5.8307134E-05
   15.66000     -5.9537651E-05
   15.68000     -6.0932034E-05
   15.70000     -6.2306630E-05
   15.72000     -6.3529784E-05
   15.74000     -6.4624939E-05
   15.76000     -6.5755121E-05
   15.78000     -6.7099478E-05
   15.80000     -6.8716392E-05
   15.82000     -7.0498594E-05
   15.84000     -7.2254879E-05
   15.86000     -7.3854855E-05
   15.88000     -7.5325144E-05
   15.90000     -7.6824021E-05
   15.92000     -7.8516372E-05
   15.94000     -8.0447338E-05
   15.96000     -8.2511651E-05
   15.98000     -8.4539315E-05
   16.00000     -8.6427601E-05
   16.02000     -8.8215740E-05
   16.04000     -9.0046597E-05
   16.06000     -9.2049690E-05
   16.08000     -9.4239738E-05
   16.10000     -9.6509320E-05
   16.12000     -9.8717515E-05
   16.14000     -1.0080093E-04
   16.16000     -1.0281889E-04
   16.18000     -1.0489982E-04
   16.20000     -1.0713516E-04
   16.22000     -1.0950735E-04
   16.24000     -1.1190779E-04
   16.26000     -1.1422763E-04
   16.28000     -1.1644589E-04
   16.30000     -1.1864411E-04
   16.32000     -1.2093769E-04
   16.34000     -1.2338151E-04
   16.36000     -1.2592749E-04
   16.38000     -1.2846799E-04
   16.40000     -1.3092875E-04
   16.42000     -1.3333480E-04
   16.44000     -1.3579514E-04
   16.46000     -1.3841849E-04
   16.48000     -1.4122881E-04
   16.50000     -1.4414931E-04
   16.52000     -1.4706863E-04
   16.54000     -1.4993579E-04
   16.56000     -1.5280741E-04
   16.58000     -1.5580830E-04
   16.60000     -1.5903707E-04
   16.62000     -1.6249181E-04
   16.64000     -1.6607586E-04
   16.66000     -1.6967949E-04
   16.68000     -1.7327270E-04
   16.70000     -1.7693528E-04
   16.72000     -1.8079960E-04
   16.74000     -1.8494991E-04
   16.76000     -1.8935670E-04
   16.78000     -1.9389768E-04
   16.80000     -1.9845042E-04
   16.82000     -2.0298679E-04
   16.84000     -2.0759749E-04
   16.86000     -2.1242836E-04
   16.88000     -2.1757565E-04
   16.90000     -2.2301881E-04
   16.92000     -2.2863994E-04