  -2.400000      0.0000000E+00
  -2.380000      0.0000000E+00
  -2.360000      0.0000000E+00
  -2.340000      0.0000000E+00
  -2.320000      0.0000000E+00
  -2.300000      0.0000000E+00
  -2.280000      0.0000000E+00
  -2.260000      0.0000000E+00
  -2.240000      0.0000000E+00
  -2.220000      0.0000000E+00
  -2.200000      0.0000000E+00
  -2.180000      0.0000000E+00
  -2.160000      0.0000000E+00
  -2.140000      0.0000000E+00
  -2.120000      0.0000000E+00
  -2.100000      0.0000000E+00
  -2.080000      0.0000000E+00
  -2.060000      0.0000000E+00
  -2.040000      0.0000000E+00
  -2.020000      0.0000000E+00
  -2.000000      0.0000000E+00
  -1.980000      0.0000000E+00
  -1.960000      0.0000000E+00
  -1.940000      0.0000000E+00
  -1.920000      0.0000000E+00
  -1.900000      0.0000000E+00
  -1.880000      0.0000000E+00
  -1.860000      0.0000000E+00
  -1.840000      0.0000000E+00
  -1.820000      0.0000000E+00
  -1.800000      0.0000000E+00
  -1.780000      0.0000000E+00
  -1.760000      0.0000000E+00
  -1.740000      0.0000000E+00
  -1.720000      0.0000000E+00
  -1.700000      0.0000000E+00
  -1.680000      0.0000000E+00
  -1.660000      0.0000000E+00
  -1.640000      0.0000000E+00
  -1.620000      0.0000000E+00
  -1.600000      0.0000000E+00
  -1.580000      0.0000000E+00
  -1.560000      0.0000000E+00
  -1.540000      0.0000000E+00
  -1.520000      0.0000000E+00
  -1.500000     -1.4649489E-38
  -1.480000     -4.4256881E-38
  -1.460000     -1.4702137E-37
  -1.440000     -2.8066349E-37
  -1.420000     -3.3992622E-37
  -1.400000      4.2305698E-37
  -1.380000      3.1024624E-36
  -1.360000      4.7458278E-36
  -1.340000     -4.4664592E-36
  -1.320000     -2.7050785E-35
  -1.300000     -4.1645443E-35
  -1.280000      6.6802116E-36
  -1.260000      1.7141067E-34
  -1.240000      3.9429667E-34
  -1.220000      3.5340310E-34
  -1.200000     -5.0731416E-34
  -1.180000     -2.4068836E-33
  -1.160000     -4.0334084E-33
  -1.140000     -1.7067317E-33
  -1.120000      8.7425100E-33
  -1.100000      2.5322761E-32
  -1.080000      3.1139186E-32
  -1.060000     -4.8196363E-33
  -1.040000     -1.0084498E-31
  -1.020000     -2.0823833E-31
  -1.000000     -1.7263726E-31
 -0.9800000      1.9752022E-31
 -0.9600000      8.8594338E-31
 -0.9400000      1.3505430E-30
 -0.9200000      5.2212271E-31
 -0.9000000     -2.3759133E-30
 -0.8800000     -6.1904444E-30
 -0.8600000     -6.6686889E-30
 -0.8400000      1.7563612E-30
 -0.8200000      1.9606784E-29
 -0.8000000      3.4431481E-29
 -0.7800000      2.0958699E-29
 -0.7600000     -3.9675734E-29
 -0.7400000     -1.2402487E-28
 -0.7200000     -1.4422137E-28
 -0.7000000      9.6349077E-30
 -0.6800000      3.4037398E-28
 -0.6600000      6.0442793E-28
 -0.6400000      3.5172324E-28
 -0.6200000     -6.8815465E-28
 -0.6000000     -2.0024722E-27
 -0.5800000     -2.0785568E-27
 -0.5600000      6.4531533E-28
 -0.5400000      5.6249145E-27
 -0.5200000      8.5060491E-27
 -0.5000000      2.8357352E-27
 -0.4800000     -1.3267929E-26
 -0.4600000     -2.9229071E-26
 -0.4400000     -2.2670143E-26
 -0.4200000      2.2646329E-26
 -0.4000000      8.7381956E-26
 -0.3800000      1.0402401E-25
 -0.3600000     -2.9223458E-27
 -0.3400000     -2.2220442E-25
 -0.3200000     -3.7816833E-25
 -0.3000000     -1.9428909E-25
 -0.2800000      4.4055476E-25
 -0.2600000      1.1526316E-24
 -0.2400000      1.0846732E-24
 -0.2200000     -4.6059808E-25
 -0.2000000     -2.9479659E-24
 -0.1800000     -4.0980657E-24
 -0.1600000     -1.1482844E-24
 -0.1400000      6.0589152E-24
 -0.1200000      1.2425418E-23
 -0.1000000      9.1914633E-24
 -7.9999998E-02 -8.3694994E-24
 -5.9999999E-02 -3.1394537E-23
 -3.9999999E-02 -3.6392489E-23
 -2.0000000E-02 -1.5058100E-24
  0.0000000E+00  6.5183084E-23
  2.0000000E-02  1.1004396E-22
  3.9999999E-02  6.0889453E-23
  5.9999999E-02 -1.0107976E-22
  7.9999998E-02 -2.7508847E-22
  0.1000000     -2.6508044E-22
  0.1200000      6.2692840E-23
  0.1400000      5.7268732E-22
  0.1600000      8.1174529E-22
  0.1800000      2.9773782E-22
  0.2000000     -9.4096419E-22
  0.2200000     -2.0205989E-21
  0.2400000     -1.5956457E-21
  0.2600000      9.3217530E-22
  0.2800000      4.2022548E-21
  0.3000000      5.0669158E-21
  0.3200000      9.0670244E-22
  0.3400000     -7.0748637E-21
  0.3600000     -1.2632490E-20
  0.3800000     -8.0742529E-21
  0.4000000      8.2009562E-21
  0.4200000      2.6047580E-20
  0.4400000      2.7219790E-20
  0.4600000      1.1015259E-22
  0.4800000     -4.3685201E-20
  0.5000000     -6.7818238E-20
  0.5200000     -3.5231574E-20
  0.5400000      5.3019482E-20
  0.5600000      1.3701208E-19
  0.5800000      1.2743952E-19
  0.6000000     -1.7789865E-20
  0.6200000     -2.2423946E-19
  0.6400000     -3.1490942E-19
  0.6600000     -1.3699613E-19
  0.6800000      2.7029851E-19
  0.7000000      6.1737855E-19
  0.7200000      5.2936338E-19
  0.7400000     -1.2191652E-19
  0.7600000     -9.7125997E-19
  0.7800000     -1.2850599E-18
  0.8000000     -5.0743028E-19
  0.8200000      1.1169520E-18
  0.8400000      2.4176169E-18
  0.8600000      2.0120294E-18
  0.8800000     -4.6651430E-19
  0.9000000     -3.5847038E-18
  0.9200000     -4.7010800E-18
  0.9400000     -1.9399842E-18
  0.9600000      3.7484302E-18
  0.9800000      8.3308370E-18
   1.000000      7.1802892E-18
   1.020000     -9.2240078E-19
   1.040000     -1.1365130E-17
   1.060000     -1.5657237E-17
   1.080000     -7.6146649E-18
   1.100000      1.0236145E-17
   1.120000      2.5692504E-17
   1.140000      2.4176330E-17
   1.160000      7.9201996E-19
   1.180000     -3.1827485E-17
   1.200000     -4.8324080E-17
   1.220000     -2.8365767E-17
   1.240000      2.3637995E-17
   1.260000      7.3504295E-17
   1.280000      7.6657196E-17
   1.300000      1.3673265E-17
   1.320000     -8.3529314E-17
   1.340000     -1.4145208E-16
   1.360000     -9.5189357E-17
   1.380000      5.0895596E-17
   1.400000      2.0236616E-16
   1.420000      2.2697145E-16
   1.440000      5.9504336E-17
   1.460000     -2.1637851E-16
   1.480000     -3.9172820E-16
   1.500000     -2.7733338E-16
   1.520000      1.1914721E-16
   1.540000      5.3451749E-16
   1.560000      6.0410861E-16
   1.580000      1.5906592E-16
   1.600000     -5.5869129E-16
   1.620000     -9.8836061E-16
   1.640000     -6.6230591E-16
   1.660000      3.4154968E-16
   1.680000      1.3120987E-15
   1.700000      1.3720433E-15
   1.720000      2.2966015E-16
   1.740000     -1.3986827E-15
   1.760000     -2.1769626E-15
   1.780000     -1.2074907E-15
   1.800000      1.0458039E-15
   1.820000      2.8573443E-15
   1.840000      2.5207976E-15
   1.860000     -9.6681737E-17
   1.880000     -3.1053331E-15
   1.900000     -3.9076472E-15
   1.920000     -1.4265182E-15
   1.940000      2.6437554E-15
   1.960000      4.9202988E-15
   1.980000      3.1646095E-15
   2.000000     -1.4927791E-15
   2.020000     -5.1468788E-15
   2.040000     -4.4237600E-15
   2.060000      2.6272614E-16
   2.080000      4.6902628E-15
   2.100000      4.5662860E-15
   2.120000     -1.4415468E-16
   2.140000     -4.6453142E-15
   2.160000     -3.7647828E-15
   2.180000      2.3379803E-15
   2.200000      7.1535075E-15
   2.220000      3.7671384E-15
   2.240000     -7.0061297E-15
   2.260000     -1.4813942E-14
   2.280000     -8.3328670E-15
   2.300000      1.1926669E-14
   2.320000      2.9334577E-14
   2.340000      2.3072474E-14
   2.360000     -1.0885995E-14
   2.380000     -4.8887882E-14
   2.400000     -5.3677176E-14
   2.420000     -7.3678466E-15
   2.440000      6.3860945E-14
   2.460000      1.0055053E-13
   2.480000      5.6471134E-14
   2.500000     -5.3577002E-14
   2.520000     -1.4972210E-13
   2.540000     -1.4212836E-13
   2.560000     -9.2912662E-15
   2.580000      1.6613088E-13
   2.600000      2.4543432E-13
   2.620000      1.4081419E-13
   2.640000     -1.0051765E-13
   2.660000     -3.1083681E-13
   2.680000     -3.1822160E-13
   2.700000     -8.2825741E-14
   2.720000      2.5454392E-13
   2.740000      4.5836972E-13
   2.760000      3.6290852E-13
   2.780000     -3.2617428E-15
   2.800000     -4.2292398E-13
   2.820000     -6.2207618E-13
   2.840000     -4.3964623E-13
   2.860000      6.7618444E-14
   2.880000      6.3723825E-13
   2.900000      9.1956835E-13
   2.920000      6.5733470E-13
   2.940000     -1.3613271E-13
   2.960000     -1.0879443E-12
   2.980000     -1.5714298E-12
   3.000000     -1.0520051E-12
   3.020000      4.5684555E-13
   3.040000      2.1535083E-12
   3.060000      2.7572766E-12
   3.080000      1.3752668E-12
   3.100000     -1.5829936E-12
   3.120000     -4.2438600E-12
   3.140000     -4.3212894E-12
   3.160000     -9.1997438E-13
   3.180000      4.2338242E-12
   3.200000      7.4196534E-12
   3.220000      5.4675422E-12
   3.240000     -1.4065002E-12
   3.260000     -8.8501827E-12
   3.280000     -1.0938543E-11
   3.300000     -4.7263382E-12
   3.320000      6.5995833E-12
   3.340000      1.4978999E-11
   3.360000      1.3080082E-11
   3.380000      4.6301526E-13
   3.400000     -1.4738549E-11
   3.420000     -2.0878280E-11
   3.440000     -1.1627042E-11
   3.460000      8.0687826E-12
   3.480000      2.4252931E-11
   3.500000      2.3831529E-11
   3.520000      5.0856068E-12
   3.540000     -1.9603423E-11
   3.560000     -3.1937612E-11
   3.580000     -2.1414318E-11
   3.600000      5.8391538E-12
   3.620000      3.0545337E-11
   3.640000      3.4235698E-11
   3.660000      1.3356925E-11
   3.680000     -1.7515990E-11
   3.700000     -3.6255034E-11
   3.720000     -2.9629563E-11
   3.740000     -2.9524759E-12
   3.760000      2.4429738E-11
   3.780000      3.3928763E-11
   3.800000      2.0960633E-11
   3.820000     -3.3606614E-12
   3.840000     -2.2239785E-11
   3.860000     -2.5741610E-11
   3.880000     -1.5734738E-11
   3.900000     -8.7863142E-13
   3.920000      1.1740302E-11
   3.940000      1.9909314E-11
   3.960000      2.2780416E-11
   3.980000      1.6860428E-11
   4.000000     -1.4538180E-12
   4.020000     -2.7768492E-11
   4.040000     -4.5682784E-11
   4.060000     -3.5679352E-11
   4.080000      6.3761852E-12
   4.100000      5.7290114E-11
   4.120000      7.6874854E-11
   4.140000      3.8851426E-11
   4.160000     -4.0756322E-11
   4.180000     -1.0556395E-10
   4.200000     -9.7884055E-11
   4.220000     -8.6862540E-12
   4.240000      1.0409103E-10
   4.260000      1.5203888E-10
   4.280000      8.6113068E-11
   4.300000     -5.5521147E-11
   4.320000     -1.6716378E-10
   4.340000     -1.5605321E-10
   4.360000     -2.2261026E-11
   4.380000      1.3168761E-10
   4.400000      1.7868866E-10
   4.420000      7.4592027E-11
   4.440000     -9.5981084E-11
   4.460000     -1.8318264E-10
   4.480000     -1.0046701E-10
   4.500000      9.0117649E-11
   4.520000      2.1843738E-10
   4.540000      1.5136613E-10
   4.560000     -7.6970069E-11
   4.580000     -2.7195188E-10
   4.600000     -2.3602773E-10
   4.620000      4.5470596E-11
   4.640000      3.5712991E-10
   4.660000      4.1061032E-10
   4.680000      9.5930819E-11
   4.700000     -3.8591810E-10
   4.720000     -6.4793587E-10
   4.740000     -4.2889922E-10
   4.760000      1.5627875E-10
   4.780000      6.5865063E-10
   4.800000      6.3679423E-10
   4.820000      4.3040155E-11
   4.840000     -6.7530437E-10
   4.860000     -8.8739516E-10
   4.880000     -2.9186742E-10
   4.900000      7.7918227E-10
   4.920000      1.5480257E-09
   4.940000      1.3707706E-09
   4.960000      2.6890240E-10
   4.980000     -1.0302341E-09
   5.000000     -1.6197451E-09
   5.020000     -1.1197286E-09
   5.040000     -3.8450886E-13
   5.060000      7.6391421E-10
   5.080000      4.6281728E-10
   5.100000     -7.6443429E-10
   5.120000     -2.0060009E-09
   5.140000     -2.2693265E-09
   5.160000     -1.2344183E-09
   5.180000      5.4278687E-10
   5.200000      2.1341378E-09
   5.220000      3.0121436E-09
   5.240000      3.4250189E-09
   5.260000      4.0530614E-09
   5.280000      5.2609068E-09
   5.300000      6.6304144E-09
   5.320000      7.2191355E-09
   5.340000      6.3261196E-09
   5.360000      4.0454013E-09
   5.380000      1.0289454E-09
   5.400000     -2.4080162E-09
   5.420000     -7.0374546E-09
   5.440000     -1.4537760E-08
   5.460000     -2.6372490E-08
   5.480000     -4.2636401E-08
   5.500000     -6.1990676E-08
   5.520000     -8.3006057E-08
   5.540000     -1.0598775E-07
   5.560000     -1.3373564E-07
   5.580000     -1.7036518E-07
   5.600000     -2.1888569E-07
   5.620000     -2.7945680E-07
   5.640000     -3.4999036E-07
   5.660000     -4.2903469E-07
   5.680000     -5.1894142E-07
   5.700000     -6.2679391E-07
   5.720000     -7.6208767E-07
   5.740000     -9.3268920E-07
   5.760000     -1.1421722E-06
   5.780000     -1.3908513E-06
   5.800000     -1.6801102E-06
   5.820000     -2.0169934E-06
   5.840000     -2.4156143E-06
   5.860000     -2.8942391E-06
   5.880000     -3.4702314E-06
   5.900000     -4.1568255E-06
   5.920000     -4.9644236E-06
   5.940000     -5.9056756E-06
   5.960000     -7.0006631E-06
   5.980000     -8.2784109E-06
   6.000000     -9.7737848E-06
   6.020000     -1.1522438E-05
   6.040000     -1.3557935E-05
   6.060000     -1.5913385E-05
   6.080000     -1.8626342E-05
   6.100000     -2.1743232E-05
   6.120000     -2.5320143E-05
   6.140000     -2.9419978E-05
   6.160000     -3.4108842E-05
   6.180000     -3.9454884E-05
   6.200000     -4.5530389E-05
   6.220000     -5.2414875E-05
   6.240000     -6.0196162E-05
   6.260000     -6.8968417E-05
   6.280000     -7.8829195E-05
   6.300000     -8.9878733E-05
   6.320000     -1.0222253E-04
   6.340000     -1.1597488E-04
   6.360000     -1.3125915E-04
   6.380000     -1.4820279E-04
   6.400000     -1.6692944E-04
   6.420000     -1.8755413E-04
   6.440000     -2.1018535E-04
   6.460000     -2.3493274E-04
   6.480000     -2.6191355E-04
   6.500000     -2.9124998E-04
   6.520000     -3.2305706E-04
   6.540000     -3.5742676E-04
   6.560000     -3.9441924E-04
   6.580000     -4.3406655E-04
   6.600000     -4.7638544E-04
   6.620000     -5.2138756E-04
   6.640000     -5.6907529E-04
   6.660000     -6.1942422E-04
   6.680000     -6.7235978E-04
   6.700000     -7.2774541E-04
   6.720000     -7.8538829E-04
   6.740000     -8.4505731E-04
   6.760000     -9.0649771E-04
   6.780000     -9.6942863E-04
   6.800000     -1.0335235E-03
   6.820000     -1.0983846E-03
   6.840000     -1.1635316E-03
   6.860000     -1.2284097E-03
   6.880000     -1.2924141E-03
   6.900000     -1.3549094E-03
   6.920000     -1.4152325E-03
   6.940000     -1.4726792E-03
   6.960000     -1.5264857E-03
   6.980000     -1.5758248E-03
   7.000000     -1.6198215E-03
   7.020000     -1.6575804E-03
   7.040000     -1.6882062E-03
   7.060000     -1.7108116E-03
   7.080000     -1.7245101E-03
   7.100000     -1.7284128E-03
   7.120000     -1.7216394E-03
   7.140000     -1.7033438E-03
   7.160000     -1.6727438E-03
   7.180000     -1.6291369E-03
   7.200000     -1.5719016E-03
   7.220000     -1.5004943E-03
   7.240000     -1.4144551E-03
   7.260000     -1.3134329E-03
   7.280000     -1.1972197E-03
   7.300000     -1.0657727E-03
   7.320000     -9.1921433E-04
   7.340000     -7.5781322E-04
   7.360000     -5.8196805E-04
   7.380000     -3.9221466E-04
   7.400000     -1.8925765E-04
   7.420000      2.5994073E-05
   7.440000      2.5241694E-04
   7.460000      4.8869936E-04
   7.480000      7.3339255E-04
   7.500000      9.8495197E-04
   7.520000      1.2417425E-03
   7.540000      1.5020099E-03
   7.560000      1.7638488E-03
   7.580000      2.0252035E-03
   7.600000      2.2839187E-03
   7.620000      2.5378182E-03
   7.640000      2.7847679E-03
   7.660000      3.0226950E-03
   7.680000      3.2495605E-03
   7.700000      3.4633290E-03
   7.720000      3.6619732E-03
   7.740000      3.8435312E-03
   7.760000      4.0061888E-03
   7.780000      4.1483454E-03
   7.800000      4.2686258E-03
   7.820000      4.3658474E-03
   7.840000      4.4389842E-03
   7.860000      4.4871652E-03
   7.880000      4.5097233E-03
   7.900000      4.5062578E-03
   7.920000      4.4766711E-03
   7.940000      4.4211480E-03
   7.960000      4.3401076E-03
   7.980000      4.2341547E-03
   8.000000      4.1040801E-03
   8.020000      3.9508962E-03
   8.040000      3.7758690E-03
   8.060000      3.5805074E-03
   8.080000      3.3665041E-03
   8.100000      3.1356607E-03
   8.120000      2.8898458E-03
   8.140000      2.6310072E-03
   8.160000      2.3612140E-03
   8.180000      2.0826682E-03
   8.200000      1.7976579E-03
   8.220000      1.5084605E-03
   8.240000      1.2172544E-03
   8.260000      9.2609320E-04
   8.280000      6.3695083E-04
   8.300000      3.5178947E-04
   8.320000      7.2579933E-05
   8.340000     -1.9876243E-04
   8.360000     -4.6049370E-04
   8.380000     -7.1113335E-04
   8.400000     -9.4946678E-04
   8.420000     -1.1744611E-03
   8.440000     -1.3851598E-03
   8.460000     -1.5806451E-03
   8.480000     -1.7600994E-03
   8.500000     -1.9229226E-03
   8.520000     -2.0688144E-03
   8.540000     -2.1977560E-03
   8.560000     -2.3098988E-03
   8.580000     -2.4054425E-03
   8.600000     -2.4845893E-03
   8.620000     -2.5475994E-03
   8.640000     -2.5948973E-03
   8.660000     -2.6271304E-03
   8.680000     -2.6451324E-03
   8.700000     -2.6498099E-03
   8.720000     -2.6420383E-03
   8.740000     -2.6226367E-03
   8.760000     -2.5924305E-03
   8.780000     -2.5523335E-03
   8.800000     -2.5033723E-03
   8.820000     -2.4466200E-03
   8.840000     -2.3830908E-03
   8.860000     -2.3136784E-03
   8.880000     -2.2391877E-03
   8.900000     -2.1604288E-03
   8.920000     -2.0782826E-03
   8.940000     -1.9936778E-03
   8.960000     -1.9074784E-03
   8.980000     -1.8203759E-03
   9.000000     -1.7328738E-03
   9.020000     -1.6453885E-03
   9.040000     -1.5583918E-03
   9.060000     -1.4724757E-03
   9.080000     -1.3882784E-03
   9.100000     -1.3063200E-03
   9.120000     -1.2268731E-03
   9.140000     -1.1499813E-03
   9.160000     -1.0756197E-03
   9.180000     -1.0038854E-03
   9.200000     -9.3506760E-04
   9.220000     -8.6954114E-04
   9.240000     -8.0755953E-04
   9.260000     -7.4910722E-04
   9.280000     -6.9392921E-04
   9.300000     -6.4172089E-04
   9.320000     -5.9233815E-04
   9.340000     -5.4586935E-04
   9.360000     -5.0251832E-04
   9.380000     -4.6239150E-04
   9.400000     -4.2535388E-04
   9.420000     -3.9106340E-04
   9.440000     -3.5915236E-04
   9.460000     -3.2941389E-04
   9.480000     -3.0185175E-04
   9.500000     -2.7656465E-04
   9.520000     -2.5356564E-04
   9.540000     -2.3268207E-04
   9.560000     -2.1360995E-04
   9.580000     -1.9606938E-04
   9.600000     -1.7992928E-04
   9.620000     -1.6520315E-04
   9.640000     -1.5192841E-04
   9.660000     -1.4003903E-04
   9.680000     -1.2934126E-04
   9.700000     -1.1960982E-04
   9.720000     -1.1071630E-04
   9.740000     -1.0267386E-04
   9.760000     -9.5555850E-05
   9.780000     -8.9358058E-05
   9.800000     -8.3927727E-05
   9.820000     -7.9028425E-05
   9.840000     -7.4493240E-05
   9.860000     -7.0336864E-05
   9.880000     -6.6723922E-05
   9.900000     -6.3807747E-05
   9.920000     -6.1566287E-05
   9.940000     -5.9773043E-05
   9.960000     -5.8137670E-05
   9.980000     -5.6512312E-05
   10.00000     -5.5000230E-05
   10.02000     -5.3874061E-05
   10.04000     -5.3359636E-05
   10.06000     -5.3450152E-05
   10.08000     -5.3895870E-05
   10.10000     -5.4380071E-05
   10.12000     -5.4747634E-05
   10.14000     -5.5111828E-05
   10.16000     -5.5759661E-05
   10.18000     -5.6931593E-05
   10.20000     -5.8644950E-05
   10.22000     -6.0691582E-05
   10.24000     -6.2802508E-05
   10.26000     -6.4846150E-05
   10.28000     -6.6909422E-05
   10.30000     -6.9210466E-05
   10.32000     -7.1924202E-05
   10.34000     -7.5061478E-05
   10.36000     -7.8487959E-05
   10.38000     -8.2050741E-05
   10.40000     -8.5699452E-05
   10.42000     -8.9505505E-05
   10.44000     -9.3577997E-05
   10.46000     -9.7961121E-05
   10.48000     -1.0260510E-04
   10.50000     -1.0742892E-04
   10.52000     -1.1240834E-04
   10.54000     -1.1760199E-04
   10.56000     -1.2308911E-04
   10.58000     -1.2887764E-04
   10.60000     -1.3487235E-04
   10.62000     -1.4094172E-04
   10.64000     -1.4703053E-04
   10.66000     -1.5321812E-04
   10.68000     -1.5966287E-04
   10.70000     -1.6647078E-04
   10.72000     -1.7359635E-04
   10.74000     -1.8086327E-04
   10.76000     -1.8809520E-04
   10.78000     -1.9525280E-04
   10.80000     -2.0246393E-04
   10.82000     -2.0991976E-04
   10.84000     -2.1772040E-04
   10.86000     -2.2579609E-04
   10.88000     -2.3396868E-04
   10.90000     -2.4210125E-04
   10.92000     -2.5021151E-04
   10.94000     -2.5845572E-04
   10.96000     -2.6699973E-04
   10.98000     -2.7588764E-04
   11.00000     -2.8501888E-04
   11.02000     -2.9425029E-04
   11.04000     -3.0353208E-04
   11.06000     -3.1295893E-04
   11.08000     -3.2269172E-04
   11.10000     -3.3282032E-04
   11.12000     -3.4328972E-04
   11.14000     -3.5395910E-04
   11.16000     -3.6474355E-04
   11.18000     -3.7571366E-04
   11.20000     -3.8705897E-04
   11.22000     -3.9893881E-04
   11.24000     -4.1134807E-04
   11.26000     -4.2412052E-04
   11.28000     -4.3707938E-04
   11.30000     -4.5021495E-04
   11.32000     -4.6373691E-04
   11.34000     -4.7794572E-04
   11.36000     -4.9302011E-04
   11.38000     -5.0889613E-04
   11.40000     -5.2534585E-04
   11.42000     -5.4220174E-04
   11.44000     -5.5954774E-04
   11.46000     -5.7771511E-04
   11.48000     -5.9707992E-04
   11.50000     -6.1782263E-04
   11.52000     -6.3984783E-04
   11.54000     -6.6293805E-04
   11.56000     -6.8701978E-04
   11.58000     -7.1232516E-04
   11.60000     -7.3931075E-04
   11.62000     -7.6839479E-04
   11.64000     -7.9972832E-04
   11.66000     -8.3319523E-04
   11.68000     -8.6865068E-04
   11.70000     -9.0620882E-04
   11.72000     -9.4634114E-04
   11.74000     -9.8969531E-04
   11.76000     -1.0367754E-03
   11.78000     -1.0877437E-03
   11.80000     -1.1425155E-03
   11.82000     -1.2010823E-03
   11.84000     -1.2638046E-03
   11.86000     -1.3314352E-03
   11.88000     -1.4048405E-03
   11.90000     -1.4846415E-03
   11.92000     -1.5710640E-03
   11.94000     -1.6641278E-03
   11.96000     -1.7640298E-03
   11.98000     -1.8714162E-03
   12.00000     -1.9873127E-03
   12.02000     -2.1127635E-03
   12.04000     -2.2484555E-03
   12.06000     -2.3946362E-03
   12.08000     -2.5513920E-03
   12.10000     -2.7190738E-03
   12.12000     -2.8985280E-03
   12.14000     -3.0909427E-03
   12.16000     -3.2974279E-03
   12.18000     -3.5186559E-03
   12.20000     -3.7548463E-03
   12.22000     -4.0061059E-03
   12.24000     -4.2728493E-03
   12.26000     -4.5559597E-03
   12.28000     -4.8565674E-03
   12.30000     -5.1756143E-03
   12.32000     -5.5135619E-03
   12.34000     -5.8704610E-03
   12.36000     -6.2463270E-03
   12.38000     -6.6414964E-03
   12.40000     -7.0566777E-03
   12.42000     -7.4926354E-03
   12.44000     -7.9497714E-03
   12.46000     -8.4279263E-03
   12.48000     -8.9265751E-03
   12.50000     -9.4452323E-03
   12.52000     -9.9837473E-03
   12.54000     -1.0542218E-02
   12.56000     -1.1120587E-02
   12.58000     -1.1718235E-02
   12.60000     -1.2333900E-02
   12.62000     -1.2965981E-02
   12.64000     -1.3612989E-02
   12.66000     -1.4273768E-02
   12.68000     -1.4947286E-02
   12.70000     -1.5632164E-02
   12.72000     -1.6326295E-02
   12.74000     -1.7026857E-02
   12.76000     -1.7730681E-02
   12.78000     -1.8434711E-02
   12.80000     -1.9136095E-02
   12.82000     -1.9831883E-02
   12.84000     -2.0518474E-02
   12.86000     -2.1191236E-02
   12.88000     -2.1844545E-02
   12.90000     -2.2472158E-02
   12.92000     -2.3067566E-02
   12.94000     -2.3623994E-02
   12.96000     -2.4133967E-02
   12.98000     -2.4588728E-02
   13.00000     -2.4977844E-02
   13.02000     -2.5289254E-02
   13.04000     -2.5509594E-02
   13.06000     -2.5624452E-02
   13.08000     -2.5618311E-02
   13.10000     -2.5474165E-02
   13.12000     -2.5173035E-02
   13.14000     -2.4693795E-02
   13.16000     -2.4013372E-02
   13.18000     -2.3107179E-02
   13.20000     -2.1949468E-02
   13.22000     -2.0513453E-02
   13.24000     -1.8771201E-02
   13.26000     -1.6693609E-02
   13.28000     -1.4250687E-02
   13.30000     -1.1412205E-02
   13.32000     -8.1485026E-03
   13.34000     -4.4312067E-03
   13.36000     -2.3372668E-04
   13.38000      4.4683623E-03
   13.40000      9.6968245E-03
   13.42000      1.5469966E-02
   13.44000      2.1801589E-02
   13.46000      2.8699903E-02
   13.48000      3.6166623E-02
   13.50000      4.4196341E-02
   13.52000      5.2776035E-02
   13.54000      6.1884515E-02
   13.56000      7.1491681E-02
   13.58000      8.1557743E-02
   13.60000      9.2032634E-02
   13.62000      0.1028556    
   13.64000      0.1139555    
   13.66000      0.1252508    
   13.68000      0.1366501    
   13.70000      0.1480523    
   13.72000      0.1593473    
   13.74000      0.1704163    
   13.76000      0.1811330    
   13.78000      0.1913652    
   13.80000      0.2009762    
   13.82000      0.2098265    
   13.84000      0.2177757    
   13.86000      0.2246841    
   13.88000      0.2304145    
   13.90000      0.2348346    
   13.92000      0.2378191    
   13.94000      0.2392520    
   13.96000      0.2390285    
   13.98000      0.2370575    
   14.00000      0.2332632    
   14.02000      0.2275869    
   14.04000      0.2199886    
   14.06000      0.2104481    
   14.08000      0.1989670    
   14.10000      0.1855684    
   14.12000      0.1702987    
   14.14000      0.1532271    
   14.16000      0.1344453    
   14.18000      0.1140673    
   14.20000      9.2228167E-02
   14.22000      6.9083273E-02
   14.24000      4.4806693E-02
   14.26000      1.9589489E-02
   14.28000     -6.3624531E-03
   14.30000     -3.2830954E-02
   14.32000     -5.9588239E-02
   14.34000     -8.6399719E-02
   14.36000     -0.1130268    
   14.38000     -0.1392299    
   14.40000     -0.1647713    
   14.42000     -0.1894183    
   14.44000     -0.2129464    
   14.46000     -0.2351421    
   14.48000     -0.2558059    
   14.50000     -0.2747546    
   14.52000     -0.2918232    
   14.54000     -0.3068675    
   14.56000     -0.3197652    
   14.58000     -0.3304178    
   14.60000     -0.3387516    
   14.62000     -0.3447183    
   14.64000     -0.3482952    
   14.66000     -0.3494851    
   14.68000     -0.3483155    
   14.70000     -0.3448384    
   14.72000     -0.3391287    
   14.74000     -0.3312834    
   14.76000     -0.3214195    
   14.78000     -0.3096721    
   14.80000     -0.2961918    
   14.82000     -0.2811430    
   14.84000     -0.2647010    
   14.86000     -0.2470498    
   14.88000     -0.2283797    
   14.90000     -0.2088845    
   14.92000     -0.1887591    
   14.94000     -0.1681968    
   14.96000     -0.1473873    
   14.98000     -0.1265146    
   15.00000     -0.1057547    
   15.02000     -8.5274503E-02
   15.04000     -6.5229729E-02
   15.06000     -4.5763791E-02
   15.08000     -2.7006604E-02
   15.10000     -9.0737902E-03
   15.12000      7.9337917E-03
   15.14000      2.3930311E-02
   15.16000      3.8845055E-02
   15.18000      5.2622367E-02
   15.20000      6.5221414E-02
   15.22000      7.6615714E-02
   15.24000      8.6792439E-02
   15.26000      9.5751546E-02
   15.28000      0.1035048    
   15.30000      0.1100748    
   15.32000      0.1154939    
   15.34000      0.1198035    
   15.36000      0.1230523    
   15.38000      0.1252954    
   15.40000      0.1265934    
   15.42000      0.1270106    
   15.44000      0.1266148    
   15.46000      0.1254754    
   15.48000      0.1236634    
   15.50000      0.1212498    
   15.52000      0.1183052    
   15.54000      0.1148989    
   15.56000      0.1110984    
   15.58000      0.1069686    
   15.60000      0.1025717    
   15.62000      9.7966537E-02
   15.64000      9.3208462E-02
   15.66000      8.8349119E-02
   15.68000      8.3436243E-02
   15.70000      7.8513488E-02
   15.72000      7.3620290E-02
   15.74000      6.8791874E-02
   15.76000      6.4059280E-02
   15.78000      5.9449624E-02
   15.80000      5.4986227E-02
   15.82000      5.0688770E-02
   15.84000      4.6573285E-02
   15.86000      4.2652275E-02
   15.88000      3.8934883E-02
   15.90000      3.5427220E-02
   15.92000      3.2132752E-02
   15.94000      2.9052567E-02
   15.96000      2.6185570E-02
   15.98000      2.3528559E-02
   16.00000      2.1076357E-02
   16.02000      1.8822065E-02
   16.04000      1.6757481E-02
   16.06000      1.4873515E-02
   16.08000      1.3160489E-02
   16.10000      1.1608271E-02
   16.12000      1.0206309E-02
   16.14000      8.9436965E-03
   16.16000      7.8093577E-03
   16.18000      6.7923535E-03
   16.20000      5.8821836E-03
   16.22000      5.0689820E-03
   16.24000      4.3435465E-03
   16.26000      3.6972610E-03
   16.28000      3.1220368E-03
   16.30000      2.6103512E-03
   16.32000      2.1553820E-03
   16.34000      1.7511473E-03
   16.36000      1.3925442E-03
   16.38000      1.0752440E-03
   16.40000      7.9550262E-04
   16.42000      5.4998975E-04
   16.44000      3.3571906E-04
   16.46000      1.5007288E-04
   16.48000     -9.1537240E-06
   16.50000     -1.4377585E-04
   16.52000     -2.5533827E-04
   16.54000     -3.4528630E-04
   16.56000     -4.1510432E-04
   16.58000     -4.6636557E-04
   16.60000     -5.0069753E-04
   16.62000     -5.1972008E-04
   16.64000     -5.2502030E-04
   16.66000     -5.1818881E-04
   16.68000     -5.0089281E-04
   16.70000     -4.7493106E-04
   16.72000     -4.4222578E-04
   16.74000     -4.0474490E-04
   16.76000     -3.6439043E-04
   16.78000     -3.2290813E-04
   16.80000     -2.8185573E-04
   16.82000     -2.4262910E-04
   16.84000     -2.0650474E-04
   16.86000     -1.7464611E-04
   16.88000     -1.4804558E-04
   16.90000     -1.2742303E-04
   16.92000     -1.1314115E-04