  -2.400000      0.0000000E+00
  -2.380000      0.0000000E+00
  -2.360000      0.0000000E+00
  -2.340000      0.0000000E+00
  -2.320000      0.0000000E+00
  -2.300000      0.0000000E+00
  -2.280000      0.0000000E+00
  -2.260000      0.0000000E+00
  -2.240000      0.0000000E+00
  -2.220000      0.0000000E+00
  -2.200000      0.0000000E+00
  -2.180000      0.0000000E+00
  -2.160000      0.0000000E+00
  -2.140000      0.0000000E+00
  -2.120000      0.0000000E+00
  -2.100000      0.0000000E+00
  -2.080000      0.0000000E+00
  -2.060000      0.0000000E+00
  -2.040000      0.0000000E+00
  -2.020000      0.0000000E+00
  -2.000000      0.0000000E+00
  -1.980000      0.0000000E+00
  -1.960000      0.0000000E+00
  -1.940000      0.0000000E+00
  -1.920000      0.0000000E+00
  -1.900000      0.0000000E+00
  -1.880000      0.0000000E+00
  -1.860000      0.0000000E+00
  -1.840000      0.0000000E+00
  -1.820000      0.0000000E+00
  -1.800000      0.0000000E+00
  -1.780000      0.0000000E+00
  -1.760000      0.0000000E+00
  -1.740000      0.0000000E+00
  -1.720000      0.0000000E+00
  -1.700000      0.0000000E+00
  -1.680000      0.0000000E+00
  -1.660000      0.0000000E+00
  -1.640000      0.0000000E+00
  -1.620000      0.0000000E+00
  -1.600000      0.0000000E+00
  -1.580000      0.0000000E+00
  -1.560000      0.0000000E+00
  -1.540000      0.0000000E+00
  -1.520000      0.0000000E+00
  -1.500000      0.0000000E+00
  -1.480000      0.0000000E+00
  -1.460000      0.0000000E+00
  -1.440000      0.0000000E+00
  -1.420000      0.0000000E+00
  -1.400000      0.0000000E+00
  -1.380000      0.0000000E+00
  -1.360000      0.0000000E+00
  -1.340000      0.0000000E+00
  -1.320000      0.0000000E+00
  -1.300000      0.0000000E+00
  -1.280000      0.0000000E+00
  -1.260000      0.0000000E+00
  -1.240000      0.0000000E+00
  -1.220000      0.0000000E+00
  -1.200000      0.0000000E+00
  -1.180000      0.0000000E+00
  -1.160000      0.0000000E+00
  -1.140000      0.0000000E+00
  -1.120000      0.0000000E+00
  -1.100000      0.0000000E+00
  -1.080000      0.0000000E+00
  -1.060000      0.0000000E+00
  -1.040000      0.0000000E+00
  -1.020000      0.0000000E+00
  -1.000000      0.0000000E+00
 -0.9800000      0.0000000E+00
 -0.9600000      0.0000000E+00
 -0.9400000      0.0000000E+00
 -0.9200000      0.0000000E+00
 -0.9000000      0.0000000E+00
 -0.8800000      0.0000000E+00
 -0.8600000      0.0000000E+00
 -0.8400000      0.0000000E+00
 -0.8200000      0.0000000E+00
 -0.8000000      0.0000000E+00
 -0.7800000      0.0000000E+00
 -0.7600000      0.0000000E+00
 -0.7400000      0.0000000E+00
 -0.7200000      0.0000000E+00
 -0.7000000      0.0000000E+00
 -0.6800000      0.0000000E+00
 -0.6600000      0.0000000E+00
 -0.6400000      0.0000000E+00
 -0.6200000      0.0000000E+00
 -0.6000000      0.0000000E+00
 -0.5800000      0.0000000E+00
 -0.5600000      0.0000000E+00
 -0.5400000      0.0000000E+00
 -0.5200000      0.0000000E+00
 -0.5000000      0.0000000E+00
 -0.4800000      0.0000000E+00
 -0.4600000      0.0000000E+00
 -0.4400000      0.0000000E+00
 -0.4200000      0.0000000E+00
 -0.4000000      0.0000000E+00
 -0.3800000      0.0000000E+00
 -0.3600000      0.0000000E+00
 -0.3400000      0.0000000E+00
 -0.3200000      0.0000000E+00
 -0.3000000      0.0000000E+00
 -0.2800000      0.0000000E+00
 -0.2600000      0.0000000E+00
 -0.2400000      0.0000000E+00
 -0.2200000      0.0000000E+00
 -0.2000000      0.0000000E+00
 -0.1800000      0.0000000E+00
 -0.1600000      0.0000000E+00
 -0.1400000      0.0000000E+00
 -0.1200000      0.0000000E+00
 -0.1000000      0.0000000E+00
 -7.9999998E-02  0.0000000E+00
 -5.9999999E-02  0.0000000E+00
 -3.9999999E-02  0.0000000E+00
 -2.0000000E-02  0.0000000E+00
  0.0000000E+00  0.0000000E+00
  2.0000000E-02  0.0000000E+00
  3.9999999E-02  0.0000000E+00
  5.9999999E-02  0.0000000E+00
  7.9999998E-02  0.0000000E+00
  0.1000000      0.0000000E+00
  0.1200000      0.0000000E+00
  0.1400000      0.0000000E+00
  0.1600000      0.0000000E+00
  0.1800000      0.0000000E+00
  0.2000000      0.0000000E+00
  0.2200000      0.0000000E+00
  0.2400000      0.0000000E+00
  0.2600000      0.0000000E+00
  0.2800000      0.0000000E+00
  0.3000000      0.0000000E+00
  0.3200000      0.0000000E+00
  0.3400000      0.0000000E+00
  0.3600000      0.0000000E+00
  0.3800000      0.0000000E+00
  0.4000000      0.0000000E+00
  0.4200000      0.0000000E+00
  0.4400000      0.0000000E+00
  0.4600000      0.0000000E+00
  0.4800000      0.0000000E+00
  0.5000000      0.0000000E+00
  0.5200000      0.0000000E+00
  0.5400000      0.0000000E+00
  0.5600000      0.0000000E+00
  0.5800000      0.0000000E+00
  0.6000000      0.0000000E+00
  0.6200000      0.0000000E+00
  0.6400000      0.0000000E+00
  0.6600000      0.0000000E+00
  0.6800000      0.0000000E+00
  0.7000000      0.0000000E+00
  0.7200000      0.0000000E+00
  0.7400000      0.0000000E+00
  0.7600000      0.0000000E+00
  0.7800000      0.0000000E+00
  0.8000000      0.0000000E+00
  0.8200000      0.0000000E+00
  0.8400000      0.0000000E+00
  0.8600000      0.0000000E+00
  0.8800000      0.0000000E+00
  0.9000000      0.0000000E+00
  0.9200000      0.0000000E+00
  0.9400000      0.0000000E+00
  0.9600000      0.0000000E+00
  0.9800000      0.0000000E+00
   1.000000      0.0000000E+00
   1.020000      0.0000000E+00
   1.040000      0.0000000E+00
   1.060000      0.0000000E+00
   1.080000      0.0000000E+00
   1.100000      0.0000000E+00
   1.120000      0.0000000E+00
   1.140000      0.0000000E+00
   1.160000      0.0000000E+00
   1.180000      0.0000000E+00
   1.200000      0.0000000E+00
   1.220000      0.0000000E+00
   1.240000      0.0000000E+00
   1.260000      0.0000000E+00
   1.280000      0.0000000E+00
   1.300000      0.0000000E+00
   1.320000      0.0000000E+00
   1.340000      0.0000000E+00
   1.360000      0.0000000E+00
   1.380000      0.0000000E+00
   1.400000      0.0000000E+00
   1.420000      0.0000000E+00
   1.440000      0.0000000E+00
   1.460000      0.0000000E+00
   1.480000      0.0000000E+00
   1.500000      0.0000000E+00
   1.520000      0.0000000E+00
   1.540000      0.0000000E+00
   1.560000      0.0000000E+00
   1.580000      0.0000000E+00
   1.600000      0.0000000E+00
   1.620000      0.0000000E+00
   1.640000      0.0000000E+00
   1.660000      0.0000000E+00
   1.680000      0.0000000E+00
   1.700000      0.0000000E+00
   1.720000      0.0000000E+00
   1.740000      0.0000000E+00
   1.760000      0.0000000E+00
   1.780000      0.0000000E+00
   1.800000      0.0000000E+00
   1.820000      0.0000000E+00
   1.840000      0.0000000E+00
   1.860000      0.0000000E+00
   1.880000      0.0000000E+00
   1.900000      0.0000000E+00
   1.920000      0.0000000E+00
   1.940000      0.0000000E+00
   1.960000      0.0000000E+00
   1.980000      0.0000000E+00
   2.000000      0.0000000E+00
   2.020000      0.0000000E+00
   2.040000      0.0000000E+00
   2.060000      0.0000000E+00
   2.080000      0.0000000E+00
   2.100000      0.0000000E+00
   2.120000      0.0000000E+00
   2.140000      0.0000000E+00
   2.160000      0.0000000E+00
   2.180000      0.0000000E+00
   2.200000      0.0000000E+00
   2.220000      0.0000000E+00
   2.240000      0.0000000E+00
   2.260000      0.0000000E+00
   2.280000      0.0000000E+00
   2.300000      0.0000000E+00
   2.320000      0.0000000E+00
   2.340000      0.0000000E+00
   2.360000      0.0000000E+00
   2.380000      0.0000000E+00
   2.400000      0.0000000E+00
   2.420000      0.0000000E+00
   2.440000      0.0000000E+00
   2.460000      0.0000000E+00
   2.480000      0.0000000E+00
   2.500000      0.0000000E+00
   2.520000      0.0000000E+00
   2.540000      0.0000000E+00
   2.560000      0.0000000E+00
   2.580000      0.0000000E+00
   2.600000      0.0000000E+00
   2.620000      0.0000000E+00
   2.640000      0.0000000E+00
   2.660000      0.0000000E+00
   2.680000      0.0000000E+00
   2.700000      0.0000000E+00
   2.720000      0.0000000E+00
   2.740000      0.0000000E+00
   2.760000      0.0000000E+00
   2.780000      0.0000000E+00
   2.800000      0.0000000E+00
   2.820000      0.0000000E+00
   2.840000      0.0000000E+00
   2.860000      0.0000000E+00
   2.880000      0.0000000E+00
   2.900000      0.0000000E+00
   2.920000      0.0000000E+00
   2.940000      0.0000000E+00
   2.960000      0.0000000E+00
   2.980000      0.0000000E+00
   3.000000      0.0000000E+00
   3.020000      0.0000000E+00
   3.040000      0.0000000E+00
   3.060000      0.0000000E+00
   3.080000      0.0000000E+00
   3.100000      0.0000000E+00
   3.120000      0.0000000E+00
   3.140000      0.0000000E+00
   3.160000      0.0000000E+00
   3.180000      0.0000000E+00
   3.200000      0.0000000E+00
   3.220000      0.0000000E+00
   3.240000      0.0000000E+00
   3.260000      0.0000000E+00
   3.280000      0.0000000E+00
   3.300000      0.0000000E+00
   3.320000      0.0000000E+00
   3.340000      0.0000000E+00
   3.360000      0.0000000E+00
   3.380000      0.0000000E+00
   3.400000      0.0000000E+00
   3.420000      0.0000000E+00
   3.440000      0.0000000E+00
   3.460000      0.0000000E+00
   3.480000      0.0000000E+00
   3.500000      0.0000000E+00
   3.520000      0.0000000E+00
   3.540000      0.0000000E+00
   3.560000      0.0000000E+00
   3.580000      0.0000000E+00
   3.600000      0.0000000E+00
   3.620000      0.0000000E+00
   3.640000      0.0000000E+00
   3.660000      0.0000000E+00
   3.680000      0.0000000E+00
   3.700000      0.0000000E+00
   3.720000      0.0000000E+00
   3.740000      0.0000000E+00
   3.760000      0.0000000E+00
   3.780000      0.0000000E+00
   3.800000      0.0000000E+00
   3.820000      0.0000000E+00
   3.840000      0.0000000E+00
   3.860000      0.0000000E+00
   3.880000      0.0000000E+00
   3.900000      0.0000000E+00
   3.920000      0.0000000E+00
   3.940000      0.0000000E+00
   3.960000      0.0000000E+00
   3.980000      0.0000000E+00
   4.000000      0.0000000E+00
   4.020000      0.0000000E+00
   4.040000      0.0000000E+00
   4.060000      0.0000000E+00
   4.080000      0.0000000E+00
   4.100000      0.0000000E+00
   4.120000      0.0000000E+00
   4.140000      0.0000000E+00
   4.160000      0.0000000E+00
   4.180000      0.0000000E+00
   4.200000      0.0000000E+00
   4.220000      0.0000000E+00
   4.240000      0.0000000E+00
   4.260000      0.0000000E+00
   4.280000      0.0000000E+00
   4.300000      0.0000000E+00
   4.320000      0.0000000E+00
   4.340000      0.0000000E+00
   4.360000      0.0000000E+00
   4.380000      0.0000000E+00
   4.400000      0.0000000E+00
   4.420000      0.0000000E+00
   4.440000      0.0000000E+00
   4.460000      0.0000000E+00
   4.480000      0.0000000E+00
   4.500000      0.0000000E+00
   4.520000      0.0000000E+00
   4.540000      0.0000000E+00
   4.560000      0.0000000E+00
   4.580000      0.0000000E+00
   4.600000      0.0000000E+00
   4.620000      0.0000000E+00
   4.640000      0.0000000E+00
   4.660000      0.0000000E+00
   4.680000      0.0000000E+00
   4.700000      0.0000000E+00
   4.720000      0.0000000E+00
   4.740000      0.0000000E+00
   4.760000      0.0000000E+00
   4.780000      0.0000000E+00
   4.800000      0.0000000E+00
   4.820000      0.0000000E+00
   4.840000      0.0000000E+00
   4.860000      0.0000000E+00
   4.880000      0.0000000E+00
   4.900000      0.0000000E+00
   4.920000      0.0000000E+00
   4.940000      0.0000000E+00
   4.960000      0.0000000E+00
   4.980000      0.0000000E+00
   5.000000      0.0000000E+00
   5.020000      0.0000000E+00
   5.040000      0.0000000E+00
   5.060000      0.0000000E+00
   5.080000      0.0000000E+00
   5.100000      0.0000000E+00
   5.120000      0.0000000E+00
   5.140000      0.0000000E+00
   5.160000      0.0000000E+00
   5.180000      0.0000000E+00
   5.200000      0.0000000E+00
   5.220000      0.0000000E+00
   5.240000      0.0000000E+00
   5.260000      0.0000000E+00
   5.280000      0.0000000E+00
   5.300000      0.0000000E+00
   5.320000      0.0000000E+00
   5.340000      1.1872089E-38
   5.360000      0.0000000E+00
   5.380000     -3.4926058E-38
   5.400000     -6.9852116E-38
   5.420000     -1.2745262E-37
   5.440000     -1.6321123E-37
   5.460000     -1.7902438E-37
   5.480000     -9.4809960E-38
   5.500000     -4.5966889E-38
   5.520000     -5.1653734E-38
   5.540000     -1.2413210E-37
   5.560000     -6.5143619E-38
   5.580000      2.7829451E-37
   5.600000      7.7465591E-37
   5.620000      7.1498068E-37
   5.640000     -6.1242164E-37
   5.660000     -2.2696867E-36
   5.680000     -1.9084476E-36
   5.700000      1.7640424E-36
   5.720000      6.0344294E-36
   5.740000      4.2854772E-36
   5.760000     -4.5773261E-36
   5.780000     -1.3029059E-35
   5.800000     -8.9517296E-36
   5.820000      8.7009074E-36
   5.840000      2.6472199E-35
   5.860000      2.6327618E-35
   5.880000     -1.5028580E-36
   5.900000     -4.1027947E-35
   5.920000     -5.8139423E-35
   5.940000     -2.4849316E-35
   5.960000      4.7506651E-35
   5.980000      1.0719238E-34
   6.000000      9.2658566E-35
   6.020000     -1.3961286E-35
   6.040000     -1.5339098E-34
   6.060000     -2.0942401E-34
   6.080000     -9.1961087E-35
   6.100000      1.6665393E-34
   6.120000      3.8552105E-34
   6.140000      3.3765118E-34
   6.160000     -5.3933833E-35
   6.180000     -5.7190147E-34
   6.200000     -7.7571607E-34
   6.220000     -3.2301063E-34
   6.240000      6.5032264E-34
   6.260000      1.4380523E-33
   6.280000      1.1888318E-33
   6.300000     -3.2767210E-34
   6.320000     -2.2094337E-33
   6.340000     -2.7881275E-33
   6.360000     -9.1484207E-34
   6.380000      2.6813618E-33
   6.400000      5.2649437E-33
   6.420000      3.8725651E-33
   6.440000     -1.8958355E-33
   6.460000     -8.3576840E-33
   6.480000     -9.5438577E-33
   6.500000     -2.0059780E-33
   6.520000      1.0740449E-32
   6.540000      1.8616939E-32
   6.560000      1.1921244E-32
   6.580000     -9.1268783E-33
   6.600000     -3.0368106E-32
   6.620000     -3.1445661E-32
   6.640000     -2.7970036E-33
   6.660000      4.0602900E-32
   6.680000      6.3344422E-32
   6.700000      3.5029162E-32
   6.720000     -3.8518625E-32
   6.740000     -1.0582945E-31
   6.760000     -1.0015615E-31
   6.780000      3.0980282E-33
   6.800000      1.4570013E-31
   6.820000      2.0828330E-31
   6.840000      9.9016309E-32
   6.860000     -1.4810131E-31
   6.880000     -3.5485842E-31
   6.900000     -3.0979122E-31
   6.920000      4.5133311E-32
   6.940000      4.9875614E-31
   6.960000      6.6335770E-31
   6.980000      2.7028104E-31
   7.000000     -5.3059845E-31
   7.020000     -1.1480735E-30
   7.040000     -9.3255804E-31
   7.060000      2.3771822E-31
   7.080000      1.6388155E-30
   7.100000      2.0525279E-30
   7.120000      7.1456167E-31
   7.140000     -1.7992780E-30
   7.160000     -3.5998471E-30
   7.180000     -2.7449253E-30
   7.200000      9.7580137E-31
   7.220000      5.1945423E-30
   7.240000      6.1953721E-30
   7.260000      1.8523910E-30
   7.280000     -5.8135380E-30
   7.300000     -1.0967517E-29
   7.320000     -7.9388728E-30
   7.340000      3.4928331E-30
   7.360000      1.5903029E-29
   7.380000      1.8265393E-29
   7.400000      4.7715057E-30
   7.420000     -1.7957768E-29
   7.440000     -3.2469232E-29
   7.460000     -2.2570316E-29
   7.480000      1.1419744E-29
   7.500000      4.7096513E-29
   7.520000      5.2591363E-29
   7.540000      1.2270729E-29
   7.560000     -5.3338786E-29
   7.580000     -9.3570006E-29
   7.600000     -6.3129450E-29
   7.620000      3.4955583E-29
   7.640000      1.3538879E-28
   7.660000      1.4827745E-28
   7.680000      3.1970440E-29
   7.700000     -1.5286453E-28
   7.720000     -2.6318252E-28
   7.740000     -1.7455629E-28
   7.760000      1.0056409E-28
   7.780000      3.7808253E-28
   7.800000      4.1016891E-28
   7.820000      8.6326301E-29
   7.840000     -4.2206774E-28
   7.860000     -7.2205223E-28
   7.880000     -4.7751175E-28
   7.900000      2.7205775E-28
   7.920000      1.0242867E-27
   7.940000      1.1112649E-27
   7.960000      2.4054701E-28
   7.980000     -1.1238523E-27
   8.000000     -1.9309741E-27
   8.020000     -1.2880111E-27
   8.040000      6.9787213E-28
   8.060000      2.6974665E-27
   8.080000      2.9496528E-27
   8.100000      6.8210926E-28
   8.120000     -2.8969979E-27
   8.140000     -5.0466618E-27
   8.160000     -3.4318431E-27
   8.180000      1.6953801E-27
   8.200000      6.9196390E-27
   8.220000      7.6909316E-27
   8.240000      1.9704890E-27
   8.260000     -7.2166852E-27
   8.280000     -1.2894474E-26
   8.300000     -9.0451254E-27
   8.320000      3.8424067E-27
   8.340000      1.7249142E-26
   8.360000      1.9660785E-26
   8.380000      5.7124997E-27
   8.400000     -1.7319238E-26
   8.420000     -3.2119707E-26
   8.440000     -2.3437621E-26
   8.460000      8.0671951E-27
   8.480000      4.1761890E-26
   8.500000      4.9132852E-26
   8.520000      1.6206167E-26
   8.540000     -4.0173749E-26
   8.560000     -7.8074118E-26
   8.580000     -5.9538938E-26
   8.600000      1.5513474E-26
   8.620000      9.8488600E-26
   8.640000      1.2025785E-25
   8.660000      4.4911682E-26
   8.680000     -9.0046636E-26
   8.700000     -1.8547166E-25
   8.720000     -1.4861309E-25
   8.740000      2.5526873E-26
   8.760000      2.2575380E-25
   8.780000      2.8808890E-25
   8.800000      1.2171590E-25
   8.820000     -1.9347959E-25
   8.840000     -4.2900682E-25
   8.860000     -3.6284426E-25
   8.880000      2.9416679E-26
   8.900000      5.0103682E-25
   8.920000      6.7227619E-25
   8.940000      3.1844315E-25
   8.960000     -3.9817244E-25
   8.980000     -9.6478606E-25
   9.000000     -8.6215180E-25
   9.020000     -3.5691761E-27
   9.040000      1.0796590E-24
   9.060000      1.5292681E-24
   9.080000      8.0298896E-25
   9.100000     -7.8584721E-25
   9.120000     -2.1156875E-24
   9.140000     -1.9998190E-24
   9.160000     -1.7192905E-25
   9.180000      2.2582974E-24
   9.200000      3.3970753E-24
   9.220000      1.9669547E-24
   9.240000     -1.4654325E-24
   9.260000     -4.5120481E-24
   9.280000     -4.5244352E-24
   9.300000     -7.5467749E-25
   9.320000      4.5558977E-24
   9.340000      7.3351592E-24
   9.360000      4.6537153E-24
   9.380000     -2.5480982E-24
   9.400000     -9.3270409E-24
   9.420000     -9.9253312E-24
   9.440000     -2.3934590E-24
   9.460000      8.8874300E-24
   9.480000      1.5387343E-23
   9.500000      1.0584752E-23
   9.520000     -4.1270016E-24
   9.540000     -1.8778985E-23
   9.560000     -2.1170305E-23
   9.580000     -6.5235728E-24
   9.600000      1.6850407E-23
   9.620000      3.1509247E-23
   9.640000      2.3332059E-23
   9.660000     -5.9967048E-24
   9.680000     -3.6862719E-23
   9.700000     -4.4033436E-23
   9.720000     -1.6363741E-23
   9.740000      3.0861151E-23
   9.760000      6.2824725E-23
   9.780000      4.9795431E-23
   9.800000     -7.1315629E-24
   9.820000     -7.0300463E-23
   9.840000     -8.8845567E-23
   9.860000     -3.7994151E-23
   9.880000      5.4878819E-23
   9.900000      1.2187997E-22
   9.920000      1.0225772E-22
   9.940000     -5.8190171E-24
   9.960000     -1.3143029E-22
   9.980000     -1.7444322E-22
   10.00000     -8.2307690E-23
   10.02000      9.6625629E-23
   10.04000      2.3232312E-22
   10.06000      2.0388211E-22
   10.08000      1.4236544E-24
   10.10000     -2.4309830E-22
   10.12000     -3.3623963E-22
   10.14000     -1.7064479E-22
   10.16000      1.6876638E-22
   10.18000      4.3638220E-22
   10.20000      3.9690377E-22
   10.22000      2.2117773E-23
   10.24000     -4.4449144E-22
   10.26000     -6.3532449E-22
   10.28000     -3.3846833E-22
   10.30000      2.9597897E-22
   10.32000      8.0883527E-22
   10.34000      7.5158371E-22
   10.36000      6.0453687E-23
   10.38000     -8.1500121E-22
   10.40000     -1.1841912E-21
   10.42000     -6.4166678E-22
   10.44000      5.3996249E-22
   10.46000      1.5033455E-21
   10.48000      1.4043517E-21
   10.50000      1.1689347E-22
   10.52000     -1.5207701E-21
   10.54000     -2.2138176E-21
   10.56000     -1.1989700E-21
   10.58000      1.0149345E-21
   10.60000      2.8196335E-21
   10.62000      2.6301948E-21
   10.64000      2.1046878E-22
   10.66000     -2.8630543E-21
   10.68000     -4.1563297E-21
   10.70000     -2.2372285E-21
   10.72000      1.9309734E-21
   10.74000      5.3163512E-21
   10.76000      4.9353170E-21
   10.78000      3.5170771E-22
   10.80000     -5.4491731E-21
   10.82000     -7.8650021E-21
   10.84000     -4.1914635E-21
   10.86000      3.7386722E-21
   10.88000      1.0167291E-20
   10.90000      9.4176500E-21
   10.92000      6.4319487E-22
   10.94000     -1.0484764E-20
   10.96000     -1.5172577E-20
   10.98000     -8.1863157E-21
   11.00000      7.0685710E-21
   11.02000      1.9613102E-20
   11.04000      1.8464970E-20
   11.06000      1.7506482E-21
   11.08000     -1.9880519E-20
   11.10000     -2.9520535E-20
   11.12000     -1.6719361E-20
   11.14000      1.2555769E-20
   11.16000      3.7502918E-20
   11.18000      3.6634592E-20
   11.20000      5.3607306E-21
   11.22000     -3.6789585E-20
   11.24000     -5.7340296E-20
   11.26000     -3.4948601E-20
   11.28000      2.0796941E-20
   11.30000      7.0971683E-20
   11.32000      7.3287427E-20
   11.34000      1.6049375E-20
   11.36000     -6.6093179E-20
   11.38000     -1.1111369E-19
   11.40000     -7.4724976E-20
   11.42000      2.9951990E-20
   11.44000      1.3156892E-19
   11.46000      1.4694004E-19
   11.48000      4.6254654E-20
   11.50000     -1.1213337E-19
   11.52000     -2.1153421E-19
   11.54000     -1.5986052E-19
   11.56000      3.1076739E-20
   11.58000      2.3473300E-19
   11.60000      2.8949843E-19
   11.62000      1.2211307E-19
   11.64000     -1.7619606E-19
   11.66000     -3.9125004E-19
   11.68000     -3.3428139E-19
   11.70000      1.6642845E-21
   11.72000      4.0129892E-19
   11.74000      5.5707693E-19
   11.76000      2.9772262E-19
   11.78000     -2.4899331E-19
   11.80000     -7.0171804E-19
   11.82000     -6.8191855E-19
   11.84000     -1.1603086E-19
   11.86000      6.4894196E-19
   11.88000      1.0429685E-18
   11.90000      6.8432895E-19
   11.92000     -2.8275905E-19
   11.94000     -1.2056746E-18
   11.96000     -1.3468976E-18
   11.98000     -4.5172876E-19
   12.00000      9.6288228E-19
   12.02000      1.8768294E-18
   12.04000      1.4804650E-18
   12.06000     -1.5015254E-19
   12.08000     -1.9552157E-18
   12.10000     -2.5494649E-18
   12.12000     -1.2522379E-18
   12.14000      1.2547208E-18
   12.16000      3.2227416E-18
   12.18000      3.0188502E-18
   12.20000      4.2279202E-19
   12.22000     -2.9564091E-18
   12.24000     -4.6206925E-18
   12.26000     -2.9775878E-18
   12.28000      1.2648678E-18
   12.30000      5.2568999E-18
   12.32000      5.8576233E-18
   12.34000      2.0232577E-18
   12.36000     -4.0308338E-18
   12.38000     -7.9989589E-18
   12.40000     -6.4655948E-18
   12.42000      3.0879332E-19
   12.44000      7.9803945E-18
   12.46000      1.0796028E-17
   12.48000      5.7893205E-18
   12.50000     -4.4838785E-18
   12.52000     -1.3009357E-17
   12.54000     -1.2971414E-17
   12.56000     -3.0065300E-18
   12.58000      1.0875591E-17
   12.60000      1.8703425E-17
   12.62000      1.3525224E-17
   12.64000     -2.8051002E-18
   12.66000     -1.9638414E-17
   12.68000     -2.4240184E-17
   12.70000     -1.1144995E-17
   12.72000      1.2539480E-17
   12.74000      3.0537374E-17
   12.76000      2.8293471E-17
   12.78000      4.2639829E-18
   12.80000     -2.6867910E-17
   12.82000     -4.2731065E-17
   12.84000     -2.8934073E-17
   12.86000      8.8451978E-18
   12.88000      4.5997975E-17
   12.90000      5.4527504E-17
   12.92000      2.3535691E-17
   12.94000     -2.9954245E-17
   12.96000     -6.9423972E-17
   12.98000     -6.3168746E-17
   13.00000     -8.7392691E-18
   13.02000      6.0715183E-17
   13.04000      9.5690867E-17
   13.06000      6.4715163E-17
   13.08000     -1.9423040E-17
   13.10000     -1.0235130E-16
   13.12000     -1.2211556E-16
   13.14000     -5.4041516E-17
   13.16000      6.5158056E-17
   13.18000      1.5506121E-16
   13.20000      1.4430748E-16
   13.22000      2.4820160E-17
   13.24000     -1.3234047E-16
   13.26000     -2.1707280E-16
   13.28000     -1.5532108E-16
   13.30000      3.0740318E-17
   13.32000      2.2397121E-16
   13.34000      2.8350714E-16
   13.36000      1.4447956E-16
   13.38000     -1.2250373E-16
   13.40000     -3.4190509E-16
   13.42000     -3.4540582E-16
   13.44000     -9.6286106E-17
   13.46000      2.6297742E-16
   13.48000      4.8664457E-16
   13.50000      3.8907336E-16
   13.52000     -9.9625616E-18
   13.54000     -4.6684629E-16
   13.56000     -6.5613544E-16
   13.58000     -3.9508465E-16
   13.60000      1.9968226E-16
   13.62000      7.4836298E-16
   13.64000      8.4186763E-16
   13.66000      3.3533508E-16
   13.68000     -5.0251331E-16
   13.70000     -1.1164270E-15
   13.72000     -1.0212189E-15
   13.74000     -1.6662630E-16
   13.76000      9.5336819E-16
   13.78000      1.5687406E-15
   13.80000      1.1472747E-15
   13.82000     -1.7829893E-16
   13.84000     -1.5950038E-15
   13.86000     -2.0867239E-15
   13.88000     -1.1398816E-15
   13.90000      7.9719374E-16
   13.92000      2.4777052E-15
   13.94000      2.6299236E-15
   13.96000      8.8138972E-16
   13.98000     -1.8145377E-15
   14.00000     -3.6469338E-15
   14.02000     -3.1231142E-15
   14.04000     -2.1558288E-16
   14.06000      3.3631587E-15
   14.08000      5.1104746E-15
   14.10000      3.4266129E-15
   14.12000     -1.0580767E-15
   14.14000     -5.5562545E-15
   14.16000     -6.7869243E-15
   14.18000     -3.2879936E-15
   14.20000      3.2016170E-15
   14.22000      8.4624919E-15
   14.24000      8.4529746E-15
   14.26000      2.2925881E-15
   14.28000     -6.5575847E-15
   14.30000     -1.2089839E-14
   14.32000     -9.7127837E-15
   14.34000      1.5177825E-16
   14.36000      1.1534769E-14
   14.38000      1.6357726E-14
   14.40000      9.9936767E-15
   14.42000     -4.7663226E-15
   14.44000     -1.8515044E-14
   14.46000     -2.1010544E-14
   14.48000     -8.5341500E-15
   14.50000      1.2300888E-14
   14.52000      2.7667760E-14
   14.54000      2.5435995E-14
   14.56000      4.3106146E-15
   14.58000     -2.3443082E-14
   14.60000     -3.8728322E-14
   14.62000     -2.8422540E-14
   14.64000      4.1036006E-15
   14.66000      3.8795888E-14
   14.68000      5.0847273E-14
   14.70000      2.7983821E-14
   14.72000     -1.8640503E-14
   14.74000     -5.8883779E-14
   14.76000     -6.2565018E-14
   14.78000     -2.1395320E-14
   14.80000      4.1606716E-14
   14.82000      8.4008917E-14
   14.84000      7.1812490E-14
   14.86000      5.4597986E-15
   14.88000     -7.5188486E-14
   14.90000     -1.1374852E-13
   14.92000     -7.5709255E-14
   14.94000      2.3186338E-14
   14.96000      1.2069031E-13
   14.98000      1.4606919E-13
   15.00000      7.0001886E-14
   15.02000     -6.7999561E-14
   15.04000     -1.7784372E-13
   15.06000     -1.7636242E-13
   15.08000     -4.8293841E-14
   15.10000      1.3279125E-13
   15.12000      2.4456945E-13
   15.14000      1.9698033E-13
   15.16000      1.6536692E-15
   15.18000     -2.2196656E-13
   15.20000     -3.1725352E-13
   15.22000     -1.9780922E-13
   15.24000      8.0499565E-14
   15.26000      3.3973540E-13
   15.28000      3.9073809E-13
   15.30000      1.6756022E-13
   15.32000     -2.0790951E-13
   15.34000     -4.8730453E-13
   15.36000     -4.5649541E-13
   15.38000     -9.3972119E-14
   15.40000      3.8708937E-13
   15.42000      6.5917486E-13
   15.44000      4.9909360E-13
   15.46000     -3.8281451E-14
   15.48000     -6.2156178E-13
   15.50000     -8.4207630E-13
   15.52000     -4.9481930E-13
   15.54000      2.4860588E-13
   15.56000      9.1262046E-13
   15.58000      1.0162229E-12
   15.60000      4.1413991E-13
   15.62000     -5.5681257E-13
   15.64000     -1.2553315E-12
   15.66000     -1.1522608E-12
   15.68000     -2.2043545E-13
   15.70000      9.8271998E-13
   15.72000      1.6372645E-12
   15.74000      1.2096461E-12
   15.76000     -1.3275171E-13
   15.78000     -1.5522978E-12
   15.80000     -2.0507506E-12
   15.82000     -1.1562272E-12
   15.84000      6.7694716E-13
   15.86000      2.2738048E-12
   15.88000      2.4787596E-12
   15.90000      9.7276072E-13
   15.92000     -1.3996626E-12
   15.94000     -3.0833027E-12
   15.96000     -2.8198106E-12
   15.98000     -5.6686399E-13
   16.00000      2.3281980E-12
   16.02000      3.9105216E-12
   16.04000      2.9185252E-12
   16.06000     -2.4954149E-13
   16.08000     -3.6207942E-12
   16.10000     -4.8471843E-12
   16.12000     -2.8071601E-12
   16.14000      1.4665962E-12
   16.16000      5.2605641E-12
   16.18000      5.8836373E-12
   16.20000      2.5483428E-12
   16.22000     -2.8656834E-12
   16.24000     -6.8260619E-12
   16.26000     -6.4309803E-12
   16.28000     -1.5081582E-12
   16.30000      4.9580821E-12
   16.32000      8.5579677E-12
   16.34000      6.3795943E-12
   16.36000     -7.8114755E-13
   16.38000     -8.5441411E-12
   16.40000     -1.1576093E-11
   16.42000     -7.1771430E-12
   16.44000      2.5630891E-12
   16.46000      1.1691030E-11
   16.48000      1.4084921E-11
   16.50000      7.6526277E-12
   16.52000     -3.8269995E-12
   16.54000     -1.2745537E-11
   16.56000     -1.2581780E-11
   16.58000     -2.5834974E-12
   16.60000      1.1063522E-11
   16.62000      1.8768206E-11
   16.64000      1.3825253E-11
   16.66000     -2.5937262E-12
   16.68000     -2.1333572E-11
   16.70000     -3.0616076E-11
   16.72000     -2.3736995E-11
   16.74000     -4.0394736E-12
   16.76000      1.6526199E-11
   16.78000      2.4889502E-11
   16.80000      1.5813668E-11
   16.82000     -3.7365024E-12
   16.84000     -1.8307980E-11
   16.86000     -1.4019578E-11
   16.88000      1.1325973E-11
   16.90000      4.5053690E-11
   16.92000      6.6274999E-11