  -2.400000      0.0000000E+00
  -2.380000      0.0000000E+00
  -2.360000      0.0000000E+00
  -2.340000      0.0000000E+00
  -2.320000      0.0000000E+00
  -2.300000      0.0000000E+00
  -2.280000      0.0000000E+00
  -2.260000      0.0000000E+00
  -2.240000      0.0000000E+00
  -2.220000      0.0000000E+00
  -2.200000      0.0000000E+00
  -2.180000      0.0000000E+00
  -2.160000      0.0000000E+00
  -2.140000      0.0000000E+00
  -2.120000      0.0000000E+00
  -2.100000      0.0000000E+00
  -2.080000      0.0000000E+00
  -2.060000      0.0000000E+00
  -2.040000      0.0000000E+00
  -2.020000      0.0000000E+00
  -2.000000      0.0000000E+00
  -1.980000      0.0000000E+00
  -1.960000      0.0000000E+00
  -1.940000      0.0000000E+00
  -1.920000      0.0000000E+00
  -1.900000      0.0000000E+00
  -1.880000      0.0000000E+00
  -1.860000      0.0000000E+00
  -1.840000      0.0000000E+00
  -1.820000      0.0000000E+00
  -1.800000      0.0000000E+00
  -1.780000      0.0000000E+00
  -1.760000      0.0000000E+00
  -1.740000      0.0000000E+00
  -1.720000      0.0000000E+00
  -1.700000      0.0000000E+00
  -1.680000      0.0000000E+00
  -1.660000      0.0000000E+00
  -1.640000      0.0000000E+00
  -1.620000      0.0000000E+00
  -1.600000      0.0000000E+00
  -1.580000      0.0000000E+00
  -1.560000      0.0000000E+00
  -1.540000      0.0000000E+00
  -1.520000      0.0000000E+00
  -1.500000      0.0000000E+00
  -1.480000      0.0000000E+00
  -1.460000      0.0000000E+00
  -1.440000      0.0000000E+00
  -1.420000      0.0000000E+00
  -1.400000      0.0000000E+00
  -1.380000      0.0000000E+00
  -1.360000      0.0000000E+00
  -1.340000      0.0000000E+00
  -1.320000      0.0000000E+00
  -1.300000      0.0000000E+00
  -1.280000      0.0000000E+00
  -1.260000      0.0000000E+00
  -1.240000      0.0000000E+00
  -1.220000      0.0000000E+00
  -1.200000      0.0000000E+00
  -1.180000      0.0000000E+00
  -1.160000      0.0000000E+00
  -1.140000      0.0000000E+00
  -1.120000      0.0000000E+00
  -1.100000      0.0000000E+00
  -1.080000      0.0000000E+00
  -1.060000      0.0000000E+00
  -1.040000      0.0000000E+00
  -1.020000      0.0000000E+00
  -1.000000      0.0000000E+00
 -0.9800000      0.0000000E+00
 -0.9600000      0.0000000E+00
 -0.9400000      0.0000000E+00
 -0.9200000      0.0000000E+00
 -0.9000000      0.0000000E+00
 -0.8800000      0.0000000E+00
 -0.8600000      0.0000000E+00
 -0.8400000      0.0000000E+00
 -0.8200000      0.0000000E+00
 -0.8000000      0.0000000E+00
 -0.7800000      0.0000000E+00
 -0.7600000      0.0000000E+00
 -0.7400000      0.0000000E+00
 -0.7200000      0.0000000E+00
 -0.7000000      0.0000000E+00
 -0.6800000      0.0000000E+00
 -0.6600000      0.0000000E+00
 -0.6400000      0.0000000E+00
 -0.6200000      0.0000000E+00
 -0.6000000      0.0000000E+00
 -0.5800000      0.0000000E+00
 -0.5600000      0.0000000E+00
 -0.5400000      0.0000000E+00
 -0.5200000      0.0000000E+00
 -0.5000000      0.0000000E+00
 -0.4800000      0.0000000E+00
 -0.4600000      0.0000000E+00
 -0.4400000      0.0000000E+00
 -0.4200000      0.0000000E+00
 -0.4000000      0.0000000E+00
 -0.3800000      0.0000000E+00
 -0.3600000      0.0000000E+00
 -0.3400000      0.0000000E+00
 -0.3200000      0.0000000E+00
 -0.3000000      0.0000000E+00
 -0.2800000      0.0000000E+00
 -0.2600000      0.0000000E+00
 -0.2400000      0.0000000E+00
 -0.2200000      0.0000000E+00
 -0.2000000      0.0000000E+00
 -0.1800000      0.0000000E+00
 -0.1600000      0.0000000E+00
 -0.1400000      0.0000000E+00
 -0.1200000      0.0000000E+00
 -0.1000000      0.0000000E+00
 -7.9999998E-02  0.0000000E+00
 -5.9999999E-02  0.0000000E+00
 -3.9999999E-02  0.0000000E+00
 -2.0000000E-02  0.0000000E+00
  0.0000000E+00  0.0000000E+00
  2.0000000E-02  0.0000000E+00
  3.9999999E-02  0.0000000E+00
  5.9999999E-02  0.0000000E+00
  7.9999998E-02  0.0000000E+00
  0.1000000      0.0000000E+00
  0.1200000      0.0000000E+00
  0.1400000      0.0000000E+00
  0.1600000      0.0000000E+00
  0.1800000      0.0000000E+00
  0.2000000      0.0000000E+00
  0.2200000      0.0000000E+00
  0.2400000      0.0000000E+00
  0.2600000      0.0000000E+00
  0.2800000      0.0000000E+00
  0.3000000      0.0000000E+00
  0.3200000      0.0000000E+00
  0.3400000      0.0000000E+00
  0.3600000      0.0000000E+00
  0.3800000      0.0000000E+00
  0.4000000      0.0000000E+00
  0.4200000      0.0000000E+00
  0.4400000      0.0000000E+00
  0.4600000      0.0000000E+00
  0.4800000      0.0000000E+00
  0.5000000      0.0000000E+00
  0.5200000      0.0000000E+00
  0.5400000      0.0000000E+00
  0.5600000      0.0000000E+00
  0.5800000      0.0000000E+00
  0.6000000      0.0000000E+00
  0.6200000      0.0000000E+00
  0.6400000      0.0000000E+00
  0.6600000      0.0000000E+00
  0.6800000      0.0000000E+00
  0.7000000      0.0000000E+00
  0.7200000      0.0000000E+00
  0.7400000      0.0000000E+00
  0.7600000      0.0000000E+00
  0.7800000      0.0000000E+00
  0.8000000      0.0000000E+00
  0.8200000      0.0000000E+00
  0.8400000      0.0000000E+00
  0.8600000      0.0000000E+00
  0.8800000      0.0000000E+00
  0.9000000      0.0000000E+00
  0.9200000      0.0000000E+00
  0.9400000      0.0000000E+00
  0.9600000      0.0000000E+00
  0.9800000      0.0000000E+00
   1.000000      0.0000000E+00
   1.020000      0.0000000E+00
   1.040000      0.0000000E+00
   1.060000      0.0000000E+00
   1.080000      0.0000000E+00
   1.100000      0.0000000E+00
   1.120000     -4.5105676E-38
   1.140000     -8.0197606E-38
   1.160000     -9.2651125E-38
   1.180000     -2.6074025E-38
   1.200000      8.8839879E-38
   1.220000      1.6069691E-37
   1.240000     -3.2878652E-38
   1.260000     -3.9701902E-37
   1.280000     -6.4205787E-37
   1.300000     -1.0801642E-36
   1.320000     -9.9557561E-37
   1.340000     -6.4908598E-37
   1.360000     -2.6088068E-37
   1.380000     -1.2984451E-36
   1.400000     -4.4483586E-36
   1.420000     -2.5458138E-36
   1.440000      6.9961601E-36
   1.460000      1.9611420E-35
   1.480000      1.3934272E-35
   1.500000     -2.4131573E-35
   1.520000     -7.4395907E-35
   1.540000     -7.6104845E-35
   1.560000      2.3165713E-35
   1.580000      1.8842119E-34
   1.600000      2.6480304E-34
   1.620000      7.4552963E-35
   1.640000     -3.7818744E-34
   1.660000     -7.5899595E-34
   1.680000     -5.4126638E-34
   1.700000      5.0982411E-34
   1.720000      1.8158855E-33
   1.740000      2.0249986E-33
   1.760000      9.4470149E-36
   1.780000     -3.6170582E-33
   1.800000     -5.8602342E-33
   1.820000     -3.0206081E-33
   1.840000      5.5123096E-33
   1.860000      1.4186918E-32
   1.880000      1.3079795E-32
   1.900000     -3.8849585E-33
   1.920000     -2.9046986E-32
   1.940000     -3.9669123E-32
   1.960000     -1.2964326E-32
   1.980000      4.7879237E-32
   2.000000      9.8567135E-32
   2.020000      7.4559267E-32
   2.040000     -5.0239676E-32
   2.060000     -2.0688884E-31
   2.080000     -2.4242319E-31
   2.100000     -3.3027506E-32
   2.120000      3.5741698E-31
   2.140000      6.2005470E-31
   2.160000      3.7783120E-31
   2.180000     -4.4278305E-31
   2.200000     -1.3274529E-30
   2.220000     -1.3498677E-30
   2.240000      8.2843911E-32
   2.260000      2.3628161E-30
   2.280000      3.5648850E-30
   2.300000      1.6926483E-30
   2.320000     -3.1999082E-30
   2.340000     -7.7633664E-30
   2.360000     -6.8893102E-30
   2.380000      1.8908312E-30
   2.400000      1.4111626E-29
   2.420000      1.8873504E-29
   2.440000      6.5437713E-30
   2.460000     -2.0202003E-29
   2.480000     -4.1779117E-29
   2.500000     -3.2315525E-29
   2.520000      1.6710223E-29
   2.540000      7.7187426E-29
   2.560000      9.2445016E-29
   2.580000      2.0162242E-29
   2.600000     -1.1488675E-28
   2.620000     -2.0810643E-28
   2.640000     -1.3871748E-28
   2.660000      1.1343868E-28
   2.680000      3.9008712E-28
   2.700000      4.1895072E-28
   2.720000      3.2740288E-29
   2.740000     -5.9948340E-28
   2.760000     -9.6225209E-28
   2.780000     -5.3667116E-28
   2.800000      6.6668155E-28
   2.820000      1.8334404E-27
   2.840000      1.7519823E-27
   2.860000     -1.5495290E-28
   2.880000     -2.9041993E-27
   2.900000     -4.1392410E-27
   2.920000     -1.8208310E-27
   2.940000      3.5300744E-27
   2.960000      8.0471393E-27
   2.980000      6.7408118E-27
   3.000000     -2.0080165E-27
   3.020000     -1.3111617E-26
   3.040000     -1.6570547E-26
   3.060000     -5.1354991E-27
   3.080000      1.7028523E-26
   3.100000      3.2953777E-26
   3.120000      2.3709407E-26
   3.140000     -1.3547934E-26
   3.160000     -5.5032305E-26
   3.180000     -6.1481021E-26
   3.200000     -1.0072486E-26
   3.220000      7.5135827E-26
   3.240000      1.2540824E-25
   3.260000      7.5072447E-26
   3.280000     -7.1923647E-26
   3.300000     -2.1436881E-25
   3.320000     -2.1014145E-25
   3.340000      1.7185079E-27
   3.360000      3.0497863E-25
   3.380000      4.4275913E-25
   3.400000      2.0863236E-25
   3.420000     -3.2903758E-25
   3.440000     -7.7610640E-25
   3.460000     -6.5932708E-25
   3.480000      1.4503523E-25
   3.500000      1.1440155E-24
   3.520000      1.4510845E-24
   3.540000      4.8507471E-25
   3.560000     -1.3408154E-24
   3.580000     -2.6148574E-24
   3.600000     -1.8892432E-24
   3.620000      9.3593002E-25
   3.640000      3.9800182E-24
   3.660000      4.4108889E-24
   3.680000      7.9599679E-25
   3.700000     -4.9758774E-24
   3.720000     -8.2209995E-24
   3.740000     -4.8742169E-24
   3.760000      4.3826836E-24
   3.780000      1.2967610E-23
   3.800000      1.2454146E-23
   3.820000     -8.1041795E-26
   3.840000     -1.7210485E-23
   3.860000     -2.4371962E-23
   3.880000     -1.1076966E-23
   3.900000      1.7613342E-23
   3.920000      4.0170839E-23
   3.940000      3.2987964E-23
   3.960000     -8.0034341E-24
   3.980000     -5.6363190E-23
   4.000000     -6.9085668E-23
   4.020000     -2.1260248E-23
   4.040000      6.3871051E-23
   4.060000      1.1952082E-22
   4.080000      8.2702846E-23
   4.100000     -4.5067362E-23
   4.120000     -1.7616737E-22
   4.140000     -1.8861124E-22
   4.160000     -2.8489822E-23
   4.180000      2.1524477E-22
   4.200000      3.4368143E-22
   4.220000      1.9564451E-22
   4.240000     -1.8793255E-22
   4.260000     -5.3116229E-22
   4.280000     -4.9880011E-22
   4.300000      1.1059027E-23
   4.320000      6.8999369E-22
   4.340000      9.6376083E-22
   4.360000      4.3530602E-22
   4.380000     -6.8337538E-22
   4.400000     -1.5570620E-21
   4.420000     -1.2885183E-21
   4.440000      2.6878952E-22
   4.460000      2.1158301E-21
   4.480000      2.6413283E-21
   4.500000      9.0561272E-22
   4.520000     -2.2600226E-21
   4.540000     -4.4199843E-21
   4.560000     -3.2414238E-21
   4.580000      1.3177165E-21
   4.600000      6.1998702E-21
   4.620000      7.0263468E-21
   4.640000      1.6853384E-21
   4.660000     -6.9750373E-21
   4.680000     -1.2121732E-20
   4.700000     -7.8894726E-21
   4.720000      4.9329336E-21
   4.740000      1.7455346E-20
   4.760000      1.8174872E-20
   4.780000      2.6175910E-21
   4.800000     -2.0334683E-20
   4.820000     -3.2251611E-20
   4.840000     -1.8839341E-20
   4.860000      1.5815553E-20
   4.880000      4.7177878E-20
   4.900000      4.6021647E-20
   4.920000      3.2821380E-21
   4.940000     -5.5608083E-20
   4.960000     -8.2988814E-20
   4.980000     -4.4866444E-20
   5.000000      4.4634724E-20
   5.020000      1.2148164E-19
   5.040000      1.1384112E-19
   5.060000      3.4832164E-21
   5.080000     -1.4242415E-19
   5.100000     -2.0583898E-19
   5.120000     -1.0717346E-19
   5.140000      1.1375670E-19
   5.160000      2.9873669E-19
   5.180000      2.7618366E-19
   5.200000      7.1689813E-21
   5.220000     -3.4379498E-19
   5.240000     -4.9549060E-19
   5.260000     -2.6170550E-19
   5.280000      2.6190658E-19
   5.300000      7.0410167E-19
   5.320000      6.6345629E-19
   5.340000      4.4881043E-20
   5.360000     -7.7781659E-19
   5.380000     -1.1579534E-18
   5.400000     -6.5592383E-19
   5.420000      5.3313626E-19
   5.440000      1.5812740E-18
   5.460000      1.5668340E-18
   5.480000      2.2972134E-19
   5.500000     -1.6416037E-18
   5.520000     -2.6101724E-18
   5.540000     -1.6363252E-18
   5.560000      9.5054757E-19
   5.580000      3.3886920E-18
   5.600000      3.6050620E-18
   5.620000      8.7140717E-19
   5.640000     -3.2592537E-18
   5.660000     -5.6921263E-18
   5.680000     -3.9936669E-18
   5.700000      1.4255832E-18
   5.720000      6.9697585E-18
   5.740000      8.0805396E-18
   5.760000      2.7861548E-18
   5.780000     -6.0553802E-18
   5.800000     -1.1985716E-17
   5.820000     -9.4419482E-18
   5.840000      1.4432303E-18
   5.860000      1.3637872E-17
   5.880000      1.7426305E-17
   5.900000      7.8001850E-18
   5.920000     -1.0356774E-17
   5.940000     -2.4067778E-17
   5.960000     -2.1127781E-17
   5.980000     -2.9869156E-19
   6.000000      2.5272212E-17
   6.020000      3.5712176E-17
   6.040000      1.9266138E-17
   6.060000     -1.6337973E-17
   6.080000     -4.6089634E-17
   6.100000     -4.4529415E-17
   6.120000     -6.4679535E-18
   6.140000      4.4599812E-17
   6.160000      6.9816042E-17
   6.180000      4.3535538E-17
   6.200000     -2.3151351E-17
   6.220000     -8.4183541E-17
   6.240000     -8.9123417E-17
   6.260000     -2.3240420E-17
   6.280000      7.3744780E-17
   6.300000      1.2955914E-16
   6.320000      9.1744415E-17
   6.340000     -2.6365836E-17
   6.360000     -1.4448435E-16
   6.380000     -1.6803538E-16
   6.400000     -6.1654741E-17
   6.420000      1.1212449E-16
   6.440000      2.2618069E-16
   6.460000      1.7958875E-16
   6.480000     -1.7350155E-17
   6.500000     -2.3294322E-16
   6.520000     -2.9918265E-16
   6.540000     -1.3948148E-16
   6.560000      1.5596524E-16
   6.580000      3.7537348E-16
   6.600000      3.3391555E-16
   6.620000      2.3731183E-17
   6.640000     -3.5297030E-16
   6.660000     -5.1124606E-16
   6.680000     -2.9457379E-16
   6.700000      1.8381155E-16
   6.720000      5.9014898E-16
   6.740000      5.9849485E-16
   6.760000      1.4521422E-16
   6.780000     -4.8477946E-16
   6.800000     -8.3009404E-16
   6.820000     -5.8505804E-16
   6.840000      1.4321241E-16
   6.860000      8.6130948E-16
   6.880000      1.0168729E-15
   6.900000      4.1480564E-16
   6.920000     -5.8552418E-16
   6.940000     -1.2720074E-15
   6.960000     -1.0780961E-15
   6.980000     -3.5147897E-17
   7.000000      1.1729432E-15
   7.020000      1.6463453E-15
   7.040000      9.2771908E-16
   7.060000     -5.9121814E-16
   7.080000     -1.8580515E-15
   7.100000     -1.8765405E-15
   7.120000     -4.7332725E-16
   7.140000      1.4647270E-15
   7.160000      2.5323983E-15
   7.180000      1.8128983E-15
   7.200000     -3.6196005E-16
   7.220000     -2.5125187E-15
   7.240000     -3.0040779E-15
   7.260000     -1.2792804E-15
   7.280000      1.5902345E-15
   7.300000      3.5417594E-15
   7.320000      2.9976176E-15
   7.340000      1.3246404E-16
   7.360000     -3.0786531E-15
   7.380000     -4.2070462E-15
   7.400000     -2.2117362E-15
   7.420000      1.6183625E-15
   7.440000      4.4600405E-15
   7.460000      4.0382198E-15
   7.480000      4.6710669E-16
   7.500000     -3.6469461E-15
   7.520000     -5.0910767E-15
   7.540000     -2.5812599E-15
   7.560000      2.0587890E-15
   7.580000      5.1681063E-15
   7.600000      4.1411852E-15
   7.620000     -3.2408576E-16
   7.640000     -4.5807542E-15
   7.660000     -4.9403777E-15
   7.680000     -8.8659087E-16
   7.700000      4.1758208E-15
   7.720000      5.5842930E-15
   7.740000      1.5476435E-15
   7.760000     -4.7813388E-15
   7.780000     -7.4843086E-15
   7.800000     -3.0038024E-15
   7.820000      5.9827004E-15
   7.840000      1.1750315E-14
   7.860000      7.6868748E-15
   7.880000     -5.2064735E-15
   7.900000     -1.7351168E-14
   7.920000     -1.7256458E-14
   7.940000     -1.4960021E-15
   7.960000      2.0192256E-14
   7.980000      3.0296281E-14
   8.000000      1.7000790E-14
   8.020000     -1.4217661E-14
   8.040000     -4.1278951E-14
   8.060000     -4.0487070E-14
   8.080000     -6.0879434E-15
   8.100000      4.1102890E-14
   8.120000      6.5353152E-14
   8.140000      4.2233801E-14
   8.160000     -1.9346973E-14
   8.180000     -7.7977060E-14
   8.200000     -8.6821426E-14
   8.220000     -2.9771585E-14
   8.240000      6.0570953E-14
   8.260000      1.2021093E-13
   8.280000      9.8320705E-14
   8.300000     -1.5265461E-15
   8.320000     -1.1583295E-13
   8.340000     -1.6067673E-13
   8.360000     -9.2277822E-14
   8.380000      5.4500936E-14
   8.400000      1.8159091E-13
   8.420000      1.9231645E-13
   8.440000      6.3094346E-14
   8.460000     -1.2995544E-13
   8.480000     -2.5431634E-13
   8.500000     -2.1065173E-13
   8.520000     -8.7819571E-15
   8.540000      2.2632270E-13
   8.560000      3.3051554E-13
   8.580000      2.1305497E-13
   8.600000     -7.0289694E-14
   8.620000     -3.3966165E-13
   8.640000     -4.0368154E-13
   8.660000     -1.9290933E-13
   8.680000      1.7713717E-13
   8.700000      4.6556210E-13
   8.720000      4.6066970E-13
   8.740000      1.3235126E-13
   8.760000     -3.2498632E-13
   8.780000     -6.0264071E-13
   8.800000     -4.8244227E-13
   8.820000     -3.2154203E-15
   8.840000      5.3458155E-13
   8.860000      7.5088828E-13
   8.880000      4.4925099E-13
   8.900000     -2.1752404E-13
   8.920000     -8.1257180E-13
   8.940000     -8.9520866E-13
   8.960000     -3.4096708E-13
   8.980000      5.2761100E-13
   9.000000      1.1207199E-12
   9.020000      9.7966286E-13
   9.040000      1.2735130E-13
   9.060000     -8.9464943E-13
   9.080000     -1.3675991E-12
   9.100000     -9.0506519E-13
   9.120000      2.3122571E-13
   9.140000      1.2660989E-12
   9.160000      1.4408209E-12
   9.180000      5.7759038E-13
   9.200000     -7.4436881E-13
   9.220000     -1.5685994E-12
   9.240000     -1.2549446E-12
   9.260000      1.6992052E-14
   9.280000      1.3339249E-12
   9.300000      1.7007070E-12
   9.320000      7.9449479E-13
   9.340000     -7.5454264E-13
   9.360000     -1.8017262E-12
   9.380000     -1.5448334E-12
   9.400000     -1.5257108E-13
   9.420000      1.3387181E-12
   9.440000      1.8108292E-12
   9.460000      9.3707648E-13
   9.480000     -5.5044391E-13
   9.500000     -1.4375977E-12
   9.520000     -1.0128200E-12
   9.540000      3.3112209E-13
   9.560000      1.3929159E-12
   9.580000      1.1528671E-12
   9.600000     -3.3739106E-13
   9.620000     -1.9238179E-12
   9.640000     -2.2588216E-12
   9.660000     -9.3924619E-13
   9.680000      1.0835510E-12
   9.700000      2.2285492E-12
   9.720000      1.6103257E-12
   9.740000     -1.3256139E-13
   9.760000     -1.2743313E-12
   9.780000     -4.5280850E-13
   9.800000      2.0194957E-12
   9.820000      4.1431329E-12
   9.840000      3.6940776E-12
   9.860000      1.0142322E-13
   9.880000     -4.7888260E-12
   9.900000     -7.8313181E-12
   9.920000     -6.8749867E-12
   9.940000     -2.4995225E-12
   9.960000      2.2400471E-12
   9.980000      4.0119197E-12
   10.00000      1.7519580E-12
   10.02000     -2.4119459E-12
   10.04000     -4.6489397E-12
   10.06000     -2.2697176E-12
   10.08000      4.2161994E-12
   10.10000      1.1406871E-11
   10.12000      1.5445475E-11
   10.14000      1.4711614E-11
   10.16000      1.0705090E-11
   10.18000      6.4846501E-12
   10.20000      3.9300520E-12
   10.22000      1.9889626E-12
   10.24000     -2.7180578E-12
   10.26000     -1.3362917E-11
   10.28000     -3.0263025E-11
   10.30000     -4.9901288E-11
   10.32000     -6.6100771E-11
   10.34000     -7.2416864E-11
   10.36000     -6.4315671E-11
   10.38000     -4.0291222E-11
   10.40000     -1.9813407E-12
   10.42000      4.6267795E-11
   10.44000      9.8189311E-11
   10.46000      1.4681602E-10
   10.48000      1.8594261E-10
   10.50000      2.1101729E-10
   10.52000      2.1855970E-10
   10.54000      2.0423750E-10
   10.56000      1.6131492E-10
   10.58000      8.1769307E-11
   10.60000     -3.9168356E-11
   10.62000     -1.9726766E-10
   10.64000     -3.7656117E-10
   10.66000     -5.5257904E-10
   10.68000     -7.0019385E-10
   10.70000     -8.0046114E-10
   10.72000     -8.4060475E-10
   10.74000     -8.0634932E-10
   10.76000     -6.7287520E-10
   10.78000     -4.0388762E-10
   10.80000      3.6149125E-11
   10.82000      6.6150518E-10
   10.84000      1.4492948E-09
   10.86000      2.3398758E-09
   10.88000      3.2540495E-09
   10.90000      4.1141557E-09
   10.92000      4.8514250E-09
   10.94000      5.3913261E-09
   10.96000      5.6264629E-09
   10.98000      5.3990918E-09
   11.00000      4.5111435E-09
   11.02000      2.7595388E-09
   11.04000     -2.7105465E-11
   11.06000     -3.9800021E-09
   11.08000     -9.2223029E-09
   11.10000     -1.5924972E-08
   11.12000     -2.4350593E-08
   11.14000     -3.4856978E-08
   11.16000     -4.7863605E-08
   11.18000     -6.3816152E-08
   11.20000     -8.3191921E-08
   11.22000     -1.0656318E-07
   11.24000     -1.3469401E-07
   11.26000     -1.6861939E-07
   11.28000     -2.0966750E-07
   11.30000     -2.5942754E-07
   11.32000     -3.1971169E-07
   11.34000     -3.9256949E-07
   11.36000     -4.8038282E-07
   11.38000     -5.8601546E-07
   11.40000     -7.1295642E-07
   11.42000     -8.6540331E-07
   11.44000     -1.0482800E-06
   11.46000     -1.2672326E-06
   11.48000     -1.5286679E-06
   11.50000     -1.8398740E-06
   11.52000     -2.2092131E-06
   11.54000     -2.6463374E-06
   11.56000     -3.1623813E-06
   11.58000     -3.7701095E-06
   11.60000     -4.4840394E-06
   11.62000     -5.3205754E-06
   11.64000     -6.2981844E-06
   11.66000     -7.4376135E-06
   11.68000     -8.7621465E-06
   11.70000     -1.0297878E-05
   11.72000     -1.2073981E-05
   11.74000     -1.4122931E-05
   11.76000     -1.6480664E-05
   11.78000     -1.9186658E-05
   11.80000     -2.2283983E-05
   11.82000     -2.5819400E-05
   11.84000     -2.9843566E-05
   11.86000     -3.4411343E-05
   11.88000     -3.9582090E-05
   11.90000     -4.5419740E-05
   11.92000     -5.1992589E-05
   11.94000     -5.9372753E-05
   11.96000     -6.7635599E-05
   11.98000     -7.6859338E-05
   12.00000     -8.7124914E-05
   12.02000     -9.8515913E-05
   12.04000     -1.1111835E-04
   12.06000     -1.2501974E-04
   12.08000     -1.4030765E-04
   12.10000     -1.5706792E-04
   12.12000     -1.7538309E-04
   12.14000     -1.9533127E-04
   12.16000     -2.1698538E-04
   12.18000     -2.4041215E-04
   12.20000     -2.6567053E-04
   12.22000     -2.9280907E-04
   12.24000     -3.2186240E-04
   12.26000     -3.5284858E-04
   12.28000     -3.8576650E-04
   12.30000     -4.2059494E-04
   12.32000     -4.5729135E-04
   12.34000     -4.9579021E-04
   12.36000     -5.3600007E-04
   12.38000     -5.7780027E-04
   12.40000     -6.2103732E-04
   12.42000     -6.6552288E-04
   12.44000     -7.1103306E-04
   12.46000     -7.5730874E-04
   12.48000     -8.0405589E-04
   12.50000     -8.5094530E-04
   12.52000     -8.9761114E-04
   12.54000     -9.4365014E-04
   12.56000     -9.8862115E-04
   12.58000     -1.0320480E-03
   12.60000     -1.0734220E-03
   12.62000     -1.1122080E-03
   12.64000     -1.1478487E-03
   12.66000     -1.1797686E-03
   12.68000     -1.2073782E-03
   12.70000     -1.2300778E-03
   12.72000     -1.2472629E-03
   12.74000     -1.2583322E-03
   12.76000     -1.2626955E-03
   12.78000     -1.2597853E-03
   12.80000     -1.2490643E-03
   12.82000     -1.2300353E-03
   12.84000     -1.2022472E-03
   12.86000     -1.1653015E-03
   12.88000     -1.1188592E-03
   12.90000     -1.0626490E-03
   12.92000     -9.9647883E-04
   12.94000     -9.2024577E-04
   12.96000     -8.3394436E-04
   12.98000     -7.3767069E-04
   13.00000     -6.3162262E-04
   13.02000     -5.1609910E-04
   13.04000     -3.9150048E-04
   13.06000     -2.5833212E-04
   13.08000     -1.1720877E-04
   13.10000      3.1143438E-05
   13.12000      1.8589030E-04
   13.14000      3.4609871E-04
   13.16000      5.1074993E-04
   13.18000      6.7875191E-04
   13.20000      8.4894861E-04
   13.22000      1.0201255E-03
   13.24000      1.1910149E-03
   13.26000      1.3603061E-03
   13.28000      1.5266613E-03
   13.30000      1.6887378E-03
   13.32000      1.8452100E-03
   13.34000      1.9947872E-03
   13.36000      2.1362246E-03
   13.38000      2.2683286E-03
   13.40000      2.3899656E-03
   13.42000      2.5000747E-03
   13.44000      2.5976880E-03
   13.46000      2.6819513E-03
   13.48000      2.7521399E-03
   13.50000      2.8076668E-03
   13.52000      2.8480797E-03
   13.54000      2.8730594E-03
   13.56000      2.8824171E-03
   13.58000      2.8761025E-03
   13.60000      2.8542115E-03
   13.62000      2.8169912E-03
   13.64000      2.7648374E-03
   13.66000      2.6982850E-03
   13.68000      2.6179934E-03
   13.70000      2.5247298E-03
   13.72000      2.4193595E-03
   13.74000      2.3028376E-03
   13.76000      2.1762054E-03
   13.78000      2.0405804E-03
   13.80000      1.8971431E-03
   13.82000      1.7471190E-03
   13.84000      1.5917576E-03
   13.86000      1.4323149E-03
   13.88000      1.2700374E-03
   13.90000      1.1061521E-03
   13.92000      9.4185851E-04
   13.94000      7.7832217E-04
   13.96000      6.1666564E-04
   13.98000      4.5795634E-04
   14.00000      3.0319093E-04
   14.02000      1.5327994E-04
   14.04000      9.0388030E-06
   14.06000     -1.2881348E-04
   14.08000     -2.5964857E-04
   14.10000     -3.8292189E-04
   14.12000     -4.9817044E-04
   14.14000     -6.0501834E-04
   14.16000     -7.0318731E-04
   14.18000     -7.9250388E-04
   14.20000     -8.7289687E-04
   14.22000     -9.4438385E-04
   14.24000     -1.0070525E-03
   14.26000     -1.0610452E-03
   14.28000     -1.1065549E-03
   14.30000     -1.1438295E-03
   14.32000     -1.1731806E-03
   14.34000     -1.1949828E-03
   14.36000     -1.2096609E-03
   14.38000     -1.2176689E-03
   14.40000     -1.2194680E-03
   14.42000     -1.2155176E-03
   14.44000     -1.2062780E-03
   14.46000     -1.1922210E-03
   14.48000     -1.1738362E-03
   14.50000     -1.1516251E-03
   14.52000     -1.1260821E-03
   14.54000     -1.0976759E-03
   14.56000     -1.0668380E-03
   14.58000     -1.0339683E-03
   14.60000     -9.9944603E-04
   14.62000     -9.6364057E-04
   14.64000     -9.2691084E-04
   14.66000     -8.8959350E-04
   14.68000     -8.5198926E-04
   14.70000     -8.1435754E-04
   14.72000     -7.7692169E-04
   14.74000     -7.3988078E-04
   14.76000     -7.0341822E-04
   14.78000     -6.6770130E-04
   14.80000     -6.3287310E-04
   14.82000     -5.9904583E-04
   14.84000     -5.6630280E-04
   14.86000     -5.3470797E-04
   14.88000     -5.0431577E-04
   14.90000     -4.7517309E-04
   14.92000     -4.4731289E-04
   14.94000     -4.2074497E-04
   14.96000     -3.9545519E-04
   14.98000     -3.7141560E-04
   15.00000     -3.4859954E-04
   15.02000     -3.2698971E-04
   15.04000     -3.0657271E-04
   15.06000     -2.8732372E-04
   15.08000     -2.6919489E-04
   15.10000     -2.5211848E-04
   15.12000     -2.3602448E-04
   15.14000     -2.2086027E-04
   15.16000     -2.0659655E-04
   15.18000     -1.9321435E-04
   15.20000     -1.8068233E-04
   15.22000     -1.6894293E-04
   15.24000     -1.5791939E-04
   15.26000     -1.4753909E-04
   15.28000     -1.3775598E-04
   15.30000     -1.2855383E-04
   15.32000     -1.1992765E-04
   15.34000     -1.1185754E-04
   15.36000     -1.0429623E-04
   15.38000     -9.7180418E-05
   15.40000     -9.0457201E-05
   15.42000     -8.4103885E-05
   15.44000     -7.8124664E-05
   15.46000     -7.2526025E-05
   15.48000     -6.7290814E-05
   15.50000     -6.2372659E-05
   15.52000     -5.7716519E-05
   15.54000     -5.3289310E-05
   15.56000     -4.9095375E-05
   15.58000     -4.5162837E-05
   15.60000     -4.1510266E-05
   15.62000     -3.8120153E-05
   15.64000     -3.4941604E-05
   15.66000     -3.1921885E-05
   15.68000     -2.9042438E-05
   15.70000     -2.6329781E-05
   15.72000     -2.3830460E-05
   15.74000     -2.1568110E-05
   15.76000     -1.9516627E-05
   15.78000     -1.7612361E-05
   15.80000     -1.5798043E-05
   15.82000     -1.4064909E-05
   15.84000     -1.2459010E-05
   15.86000     -1.1044564E-05
   15.88000     -9.8513074E-06
   15.90000     -8.8467932E-06
   15.92000     -7.9565671E-06
   15.94000     -7.1178902E-06
   15.96000     -6.3256211E-06
   15.98000     -5.6338795E-06
   16.00000     -5.1113007E-06
   16.02000     -4.7845469E-06
   16.04000     -4.6146511E-06
   16.06000     -4.5252264E-06
   16.08000     -4.4602511E-06
   16.10000     -4.4251142E-06
   16.12000     -4.4777330E-06
   16.14000     -4.6768641E-06
   16.16000     -5.0298363E-06
   16.18000     -5.4829275E-06
   16.20000     -5.9629328E-06
   16.22000     -6.4358610E-06
   16.24000     -6.9334560E-06
   16.26000     -7.5238563E-06
   16.28000     -8.2492206E-06
   16.30000     -9.0823141E-06
   16.32000     -9.9405361E-06
   16.34000     -1.0749021E-05
   16.36000     -1.1502089E-05
   16.38000     -1.2270346E-05
   16.40000     -1.3143134E-05
   16.42000     -1.4150022E-05
   16.44000     -1.5225917E-05
   16.46000     -1.6252732E-05
   16.48000     -1.7149174E-05
   16.50000     -1.7938140E-05
   16.52000     -1.8734445E-05
   16.54000     -1.9656736E-05
   16.56000     -2.0729609E-05
   16.58000     -2.1854208E-05
   16.60000     -2.2875523E-05
   16.62000     -2.3698622E-05
   16.64000     -2.4364444E-05
   16.66000     -2.5023357E-05
   16.68000     -2.5822535E-05
   16.70000     -2.6791813E-05
   16.72000     -2.7816826E-05
   16.74000     -2.8722681E-05
   16.76000     -2.9405719E-05
   16.78000     -2.9912204E-05
   16.80000     -3.0402589E-05
   16.82000     -3.1028474E-05
   16.84000     -3.1817490E-05
   16.86000     -3.2655138E-05
   16.88000     -3.3376662E-05
   16.90000     -3.3895543E-05
   16.92000     -3.4267465E-05