  -2.400000      0.0000000E+00
  -2.380000      0.0000000E+00
  -2.360000      0.0000000E+00
  -2.340000      0.0000000E+00
  -2.320000      0.0000000E+00
  -2.300000      2.2510045E-14
  -2.280000      8.8791936E-14
  -2.260000      1.2280009E-14
  -2.240000     -7.4442086E-13
  -2.220000     -2.4076375E-12
  -2.200000     -3.4039119E-12
  -2.180000     -6.8266410E-14
  -2.160000      9.9137113E-12
  -2.140000      2.1661329E-11
  -2.120000      2.1754036E-11
  -2.100000     -2.2200852E-12
  -2.080000     -4.5083187E-11
  -2.060000     -7.6118903E-11
  -2.040000     -5.4595252E-11
  -2.020000      3.4319800E-11
  -2.000000      1.4852596E-10
  -1.980000      1.9476534E-10
  -1.960000      8.4221144E-11
  -1.940000     -1.8629552E-10
  -1.920000     -4.8559212E-10
  -1.900000     -5.9003008E-10
  -1.880000     -3.1993208E-10
  -1.860000      3.1331251E-10
  -1.840000      1.0740514E-09
  -1.820000      1.6252317E-09
  -1.800000      1.6884590E-09
  -1.780000      1.0732889E-09
  -1.760000     -3.9021777E-10
  -1.740000     -2.7121390E-09
  -1.720000     -5.2096705E-09
  -1.700000     -6.0675682E-09
  -1.680000     -3.0590057E-09
  -1.660000      4.1351731E-09
  -1.640000      1.1595787E-08
  -1.620000      1.2029744E-08
  -1.600000      5.5237726E-10
  -1.580000     -1.7899843E-08
  -1.560000     -2.7313996E-08
  -1.540000     -1.1180853E-08
  -1.520000      2.9734354E-08
  -1.500000      6.8082038E-08
  -1.480000      6.3906676E-08
  -1.460000     -1.1127539E-09
  -1.440000     -9.5356469E-08
  -1.420000     -1.4657083E-07
  -1.400000     -9.4836309E-08
  -1.380000      4.6752643E-08
  -1.360000      1.8033880E-07
  -1.340000      1.8784409E-07
  -1.320000      3.3299855E-08
  -1.300000     -1.8318754E-07
  -1.280000     -2.8307991E-07
  -1.260000     -1.5214034E-07
  -1.240000      1.4434403E-07
  -1.220000      3.8515412E-07
  -1.200000      3.6056764E-07
  -1.180000      5.7074761E-08
  -1.160000     -3.0467578E-07
  -1.140000     -4.3449671E-07
  -1.120000     -2.1890018E-07
  -1.100000      1.6304053E-07
  -1.080000      3.7442308E-07
  -1.060000      2.1147578E-07
  -1.040000     -1.9806478E-07
  -1.020000     -4.8138423E-07
  -1.000000     -3.4301556E-07
 -0.9800000      1.4950464E-07
 -0.9600000      5.8638909E-07
 -0.9400000      5.5842980E-07
 -0.9200000      3.9401741E-08
 -0.9000000     -5.4475305E-07
 -0.8800000     -6.6276510E-07
 -0.8600000     -1.6762779E-07
 -0.8400000      5.1195741E-07
 -0.8200000      6.9677492E-07
 -0.8000000      6.2990999E-08
 -0.7800000     -1.0009524E-06
 -0.7600000     -1.6559263E-06
 -0.7400000     -1.3366886E-06
 -0.7200000     -3.3173558E-07
 -0.7000000      3.4166044E-07
 -0.6800000     -2.4293035E-07
 -0.6600000     -2.0563209E-06
 -0.6400000     -3.9864544E-06
 -0.6200000     -4.6711175E-06
 -0.6000000     -3.6782092E-06
 -0.5800000     -2.0301693E-06
 -0.5600000     -1.5263473E-06
 -0.5400000     -3.3125996E-06
 -0.5200000     -6.8568088E-06
 -0.5000000     -1.0255733E-05
 -0.4800000     -1.1735166E-05
 -0.4600000     -1.1166321E-05
 -0.4400000     -1.0314072E-05
 -0.4200000     -1.1522863E-05
 -0.4000000     -1.5855836E-05
 -0.3800000     -2.2223807E-05
 -0.3600000     -2.8279428E-05
 -0.3400000     -3.2394280E-05
 -0.3200000     -3.5097084E-05
 -0.3000000     -3.8753129E-05
 -0.2800000     -4.5713750E-05
 -0.2600000     -5.6459554E-05
 -0.2400000     -6.9296548E-05
 -0.2200000     -8.1880993E-05
 -0.2000000     -9.3309449E-05
 -0.1800000     -1.0501849E-04
 -0.1600000     -1.1972751E-04
 -0.1400000     -1.3930853E-04
 -0.1200000     -1.6338621E-04
 -0.1000000     -1.8986531E-04
 -7.9999998E-02 -2.1695167E-04
 -5.9999999E-02 -2.4495044E-04
 -3.9999999E-02 -2.7629288E-04
 -2.0000000E-02 -3.1374028E-04
  0.0000000E+00 -3.5828113E-04
  2.0000000E-02 -4.0853451E-04
  3.9999999E-02 -4.6221414E-04
  5.9999999E-02 -5.1844068E-04
  7.9999998E-02 -5.7891844E-04
  0.1000000     -6.4691261E-04
  0.1200000     -7.2482892E-04
  0.1400000     -8.1243209E-04
  0.1600000     -9.0725819E-04
  0.1800000     -1.0069394E-03
  0.2000000     -1.1115076E-03
  0.2200000     -1.2237014E-03
  0.2400000     -1.3469480E-03
  0.2600000     -1.4826632E-03
  0.2800000     -1.6291260E-03
  0.3000000     -1.7828920E-03
  0.3200000     -1.9415872E-03
  0.3400000     -2.1057597E-03
  0.3600000     -2.2782532E-03
  0.3800000     -2.4616334E-03
  0.4000000     -2.6558104E-03
  0.4200000     -2.8577917E-03
  0.4400000     -3.0637064E-03
  0.4600000     -3.2713707E-03
  0.4800000     -3.4812975E-03
  0.5000000     -3.6954116E-03
  0.5200000     -3.9146366E-03
  0.5400000     -4.1373768E-03
  0.5600000     -4.3600537E-03
  0.5800000     -4.5791459E-03
  0.6000000     -4.7929836E-03
  0.6200000     -5.0019054E-03
  0.6400000     -5.2067894E-03
  0.6600000     -5.4073101E-03
  0.6800000     -5.6013539E-03
  0.7000000     -5.7860259E-03
  0.7200000     -5.9593231E-03
  0.7400000     -6.1211223E-03
  0.7600000     -6.2727570E-03
  0.7800000     -6.4156712E-03
  0.8000000     -6.5503488E-03
  0.8200000     -6.6764085E-03
  0.8400000     -6.7937388E-03
  0.8600000     -6.9036996E-03
  0.8800000     -7.0094056E-03
  0.9000000     -7.1149580E-03
  0.9200000     -7.2243717E-03
  0.9400000     -7.3411721E-03
  0.9600000     -7.4689961E-03
  0.9800000     -7.6125986E-03
   1.000000     -7.7783153E-03
   1.020000     -7.9735247E-03
   1.040000     -8.2055861E-03
   1.060000     -8.4811971E-03
   1.080000     -8.8066924E-03
   1.100000     -9.1889165E-03
   1.120000     -9.6357111E-03
   1.140000     -1.0155438E-02
   1.160000     -1.0755821E-02
   1.180000     -1.1443061E-02
   1.200000     -1.2221874E-02
   1.220000     -1.3096161E-02
   1.240000     -1.4069385E-02
   1.260000     -1.5143965E-02
   1.280000     -1.6319947E-02
   1.300000     -1.7593956E-02
   1.320000     -1.8959189E-02
   1.340000     -2.0406207E-02
   1.360000     -2.1923551E-02
   1.380000     -2.3497252E-02
   1.400000     -2.5109367E-02
   1.420000     -2.6736623E-02
   1.440000     -2.8350087E-02
   1.460000     -2.9916013E-02
   1.480000     -3.1396840E-02
   1.500000     -3.2751434E-02
   1.520000     -3.3934232E-02
   1.540000     -3.4894247E-02
   1.560000     -3.5574794E-02
   1.580000     -3.5914373E-02
   1.600000     -3.5848111E-02
   1.620000     -3.5308737E-02
   1.640000     -3.4226745E-02
   1.660000     -3.2530151E-02
   1.680000     -3.0144734E-02
   1.700000     -2.6995266E-02
   1.720000     -2.3007480E-02
   1.740000     -1.8110018E-02
   1.760000     -1.2235702E-02
   1.780000     -5.3222175E-03
   1.800000      2.6871837E-03
   1.820000      1.1842328E-02
   1.840000      2.2183944E-02
   1.860000      3.3741139E-02
   1.880000      4.6529260E-02
   1.900000      6.0548455E-02
   1.920000      7.5782947E-02
   1.940000      9.2200361E-02
   1.960000      0.1097507    
   1.980000      0.1283647    
   2.000000      0.1479523    
   2.020000      0.1684014    
   2.040000      0.1895780    
   2.060000      0.2113260    
   2.080000      0.2334689    
   2.100000      0.2558104    
   2.120000      0.2781346    
   2.140000      0.3002079    
   2.160000      0.3217796    
   2.180000      0.3425853    
   2.200000      0.3623494    
   2.220000      0.3807887    
   2.240000      0.3976156    
   2.260000      0.4125423    
   2.280000      0.4252839    
   2.300000      0.4355623    
   2.320000      0.4431105    
   2.340000      0.4476767    
   2.360000      0.4490297    
   2.380000      0.4469638    
   2.400000      0.4413029    
   2.420000      0.4319039    
   2.440000      0.4186597    
   2.460000      0.4015018    
   2.480000      0.3804034    
   2.500000      0.3553826    
   2.520000      0.3265053    
   2.540000      0.2938850    
   2.560000      0.2576829    
   2.580000      0.2181059    
   2.600000      0.1754058    
   2.620000      0.1298783    
   2.640000      8.1861235E-02
   2.660000      3.1731676E-02
   2.680000     -2.0099379E-02
   2.700000     -7.3192537E-02
   2.720000     -0.1270856    
   2.740000     -0.1812984    
   2.760000     -0.2353375    
   2.780000     -0.2887027    
   2.800000     -0.3408936    
   2.820000     -0.3914174    
   2.840000     -0.4397960    
   2.860000     -0.4855714    
   2.880000     -0.5283109    
   2.900000     -0.5676129    
   2.920000     -0.6031126    
   2.940000     -0.6344870    
   2.960000     -0.6614598    
   2.980000     -0.6838035    
   3.000000     -0.7013420    
   3.020000     -0.7139520    
   3.040000     -0.7215651    
   3.060000     -0.7241683    
   3.080000     -0.7218037    
   3.100000     -0.7145662    
   3.120000     -0.7026006    
   3.140000     -0.6860986    
   3.160000     -0.6652963    
   3.180000     -0.6404708    
   3.200000     -0.6119361    
   3.220000     -0.5800377    
   3.240000     -0.5451460    
   3.260000     -0.5076511    
   3.280000     -0.4679573    
   3.300000     -0.4264790    
   3.320000     -0.3836352    
   3.340000     -0.3398439    
   3.360000     -0.2955160    
   3.380000     -0.2510498    
   3.400000     -0.2068268    
   3.420000     -0.1632095    
   3.440000     -0.1205378    
   3.460000     -7.9126552E-02
   3.480000     -3.9261471E-02
   3.500000     -1.1964899E-03
   3.520000      3.4847509E-02
   3.540000      6.8682618E-02
   3.560000      0.1001533    
   3.580000      0.1291364    
   3.600000      0.1555415    
   3.620000      0.1793111    
   3.640000      0.2004195    
   3.660000      0.2188696    
   3.680000      0.2346900    
   3.700000      0.2479323    
   3.720000      0.2586695    
   3.740000      0.2669955    
   3.760000      0.2730229    
   3.780000      0.2768793    
   3.800000      0.2787035    
   3.820000      0.2786422    
   3.840000      0.2768482    
   3.860000      0.2734793    
   3.880000      0.2686970    
   3.900000      0.2626640    
   3.920000      0.2555405    
   3.940000      0.2474817    
   3.960000      0.2386372    
   3.980000      0.2291510    
   4.000000      0.2191612    
   4.020000      0.2087986    
   4.040000      0.1981843    
   4.060000      0.1874285    
   4.080000      0.1766307    
   4.100000      0.1658813    
   4.120000      0.1552625    
   4.140000      0.1448474    
   4.160000      0.1346986    
   4.180000      0.1248674    
   4.200000      0.1153949    
   4.220000      0.1063143    
   4.240000      9.7652681E-02
   4.260000      8.9431383E-02
   4.280000      8.1664391E-02
   4.300000      7.4357748E-02
   4.320000      6.7510553E-02
   4.340000      6.1117560E-02
   4.360000      5.5171441E-02
   4.380000      4.9663093E-02
   4.400000      4.4580333E-02
   4.420000      3.9906602E-02
   4.440000      3.5621539E-02
   4.460000      3.1703267E-02
   4.480000      2.8130816E-02
   4.500000      2.4884824E-02
   4.520000      2.1946341E-02
   4.540000      1.9295204E-02
   4.560000      1.6909737E-02
   4.580000      1.4768205E-02
   4.600000      1.2850761E-02
   4.620000      1.1140223E-02
   4.640000      9.6211219E-03
   4.660000      8.2781073E-03
   4.680000      7.0952466E-03
   4.700000      6.0568075E-03
   4.720000      5.1487046E-03
   4.740000      4.3592136E-03
   4.760000      3.6783258E-03
   4.780000      3.0964199E-03
   4.800000      2.6034624E-03
   4.820000      2.1893568E-03
   4.840000      1.8449363E-03
   4.860000      1.5625710E-03
   4.880000      1.3358112E-03
   4.900000      1.1584176E-03
   4.920000      1.0236511E-03
   4.940000      9.2436577E-04
   4.960000      8.5371069E-04
   4.980000      8.0578815E-04
   5.000000      7.7577261E-04
   5.020000      7.5952400E-04
   5.040000      7.5309229E-04
   5.060000      7.5247599E-04
   5.080000      7.5371511E-04
   5.100000      7.5317861E-04
   5.120000      7.4787339E-04
   5.140000      7.3564716E-04
   5.160000      7.1519031E-04
   5.180000      6.8578566E-04
   5.200000      6.4689439E-04
   5.220000      5.9785024E-04
   5.240000      5.3795264E-04
   5.260000      4.6698572E-04
   5.280000      3.8579755E-04
   5.300000      2.9642068E-04
   5.320000      2.0150533E-04
   5.340000      1.0339198E-04
   5.360000      3.4950767E-06
   5.380000     -9.7529584E-05
   5.400000     -1.9898202E-04
   5.420000     -2.9935577E-04
   5.440000     -3.9627604E-04
   5.460000     -4.8723316E-04
   5.480000     -5.7055219E-04
   5.500000     -6.4583082E-04
   5.520000     -7.1349432E-04
   5.540000     -7.7382097E-04
   5.560000     -8.2622905E-04
   5.580000     -8.6941931E-04
   5.600000     -9.0228603E-04
   5.620000     -9.2486601E-04
   5.640000     -9.3852606E-04
   5.660000     -9.4517920E-04
   5.680000     -9.4612810E-04
   5.700000     -9.4148045E-04
   5.720000     -9.3063118E-04
   5.740000     -9.1338769E-04
   5.760000     -8.9070806E-04
   5.780000     -8.6431799E-04
   5.800000     -8.3546963E-04
   5.820000     -8.0395216E-04
   5.840000     -7.6832279E-04
   5.860000     -7.2725478E-04
   5.880000     -6.8082177E-04
   5.900000     -6.3050771E-04
   5.920000     -5.7786546E-04
   5.940000     -5.2305049E-04
   5.960000     -4.6466824E-04
   5.980000     -4.0119674E-04
   6.000000     -3.3271313E-04
   6.020000     -2.6124585E-04
   6.040000     -1.8928372E-04
   6.060000     -1.1775049E-04
   6.080000     -4.5404817E-05
   6.100000      2.9581426E-05
   6.120000      1.0715759E-04
   6.140000      1.8430701E-04
   6.160000      2.5649421E-04
   6.180000      3.2051629E-04
   6.200000      3.7624963E-04
   6.220000      4.2566366E-04
   6.240000      4.6991286E-04
   6.260000      5.0713017E-04
   6.280000      5.3301908E-04
   6.300000      5.4386508E-04
   6.320000      5.3935271E-04
   6.340000      5.2263949E-04
   6.360000      4.9752323E-04
   6.380000      4.6515511E-04
   6.400000      4.2323212E-04
   6.420000      3.6845752E-04
   6.440000      3.0014149E-04
   6.460000      2.2174047E-04
   6.480000      1.3890798E-04
   6.500000      5.5726778E-05
   6.520000     -2.7545952E-05
   6.540000     -1.1319276E-04
   6.560000     -2.0234831E-04
   6.580000     -2.9225793E-04
   6.600000     -3.7705657E-04
   6.620000     -4.5150812E-04
   6.640000     -5.1442860E-04
   6.660000     -5.6870858E-04
   6.680000     -6.1785482E-04
   6.700000     -6.6212937E-04
   6.720000     -6.9779216E-04
   6.740000     -7.2018808E-04
   6.760000     -7.2791323E-04
   6.780000     -7.2424515E-04
   6.800000     -7.1445451E-04
   6.820000     -7.0137158E-04
   6.840000     -6.8322738E-04
   6.860000     -6.5577385E-04
   6.880000     -6.1679719E-04
   6.900000     -5.6892075E-04
   6.920000     -5.1811128E-04
   6.940000     -4.6918806E-04
   6.960000     -4.2235083E-04
   6.980000     -3.7380419E-04
   7.000000     -3.1983407E-04
   7.020000     -2.6060315E-04
   7.040000     -2.0027145E-04
   7.060000     -1.4344674E-04
   7.080000     -9.1275324E-05
   7.100000     -4.0705090E-05
   7.120000      1.2513201E-05
   7.140000      6.9887807E-05
   7.160000      1.2883132E-04
   7.180000      1.8494989E-04
   7.200000      2.3575407E-04
   7.220000      2.8244054E-04
   7.240000      3.2830180E-04
   7.260000      3.7538199E-04
   7.280000      4.2242586E-04
   7.300000      4.6581432E-04
   7.320000      5.0244416E-04
   7.340000      5.3190038E-04
   7.360000      5.5609894E-04
   7.380000      5.7691598E-04
   7.400000      5.9401145E-04
   7.420000      6.0470193E-04
   7.440000      6.0584710E-04
   7.460000      5.9603370E-04
   7.480000      5.7626289E-04
   7.500000      5.4875121E-04
   7.520000      5.1501347E-04
   7.540000      4.7483356E-04
   7.560000      4.2683654E-04
   7.580000      3.7004118E-04
   7.600000      3.0509327E-04
   7.620000      2.3427123E-04
   7.640000      1.6037293E-04
   7.660000      8.5394073E-05
   7.680000      9.9586587E-06
   7.700000     -6.6165776E-05
   7.720000     -1.4292686E-04
   7.740000     -2.1908656E-04
   7.760000     -2.9222117E-04
   7.780000     -3.5963077E-04
   7.800000     -4.1951219E-04
   7.820000     -4.7153872E-04
   7.840000     -5.1639881E-04
   7.860000     -5.5462372E-04
   7.880000     -5.8562291E-04
   7.900000     -6.0774817E-04
   7.920000     -6.1941909E-04
   7.940000     -6.2043557E-04
   7.960000     -6.1234838E-04
   7.980000     -5.9746724E-04
   8.000000     -5.7724933E-04
   8.020000     -5.5143551E-04
   8.040000     -5.1875180E-04
   8.060000     -4.7864133E-04
   8.080000     -4.3249191E-04
   8.100000     -3.8315757E-04
   8.120000     -3.3305964E-04
   8.140000     -2.8251845E-04
   8.160000     -2.2990319E-04
   8.180000     -1.7361672E-04
   8.200000     -1.1419781E-04
   8.220000     -5.4560860E-05
   8.240000      2.0202392E-06
   8.260000      5.4483531E-05
   8.280000      1.0474710E-04
   8.300000      1.5582322E-04
   8.320000      2.0884084E-04
   8.340000      2.6165223E-04
   8.360000      3.1039180E-04
   8.380000      3.5270510E-04
   8.400000      3.8976659E-04
   8.420000      4.2517972E-04
   8.440000      4.6161417E-04
   8.460000      4.9811421E-04
   8.480000      5.3049671E-04
   8.500000      5.5455568E-04
   8.520000      5.6929962E-04
   8.540000      5.7740469E-04
   8.560000      5.8251776E-04
   8.580000      5.8580318E-04
   8.600000      5.8475684E-04
   8.620000      5.7527848E-04
   8.640000      5.5513624E-04
   8.660000      5.2579225E-04
   8.680000      4.9105583E-04
   8.700000      4.5382214E-04
   8.720000      4.1376989E-04
   8.740000      3.6797818E-04
   8.760000      3.1384759E-04
   8.780000      2.5174895E-04
   8.800000      1.8514224E-04
   8.820000      1.1815486E-04
   8.840000      5.2788269E-05
   8.860000     -1.1838971E-05
   8.880000     -7.7655168E-05
   8.900000     -1.4493109E-04
   8.920000     -2.1115108E-04
   8.940000     -2.7245964E-04
   8.960000     -3.2637504E-04
   8.980000     -3.7333203E-04
   9.000000     -4.1566498E-04
   9.020000     -4.5493644E-04
   9.040000     -4.9000990E-04
   9.060000     -5.1761651E-04
   9.080000     -5.3493702E-04
   9.100000     -5.4190488E-04
   9.120000     -5.4117426E-04
   9.140000     -5.3578365E-04
   9.160000     -5.2660552E-04
   9.180000     -5.1184901E-04
   9.200000     -4.8902089E-04
   9.220000     -4.5754851E-04
   9.240000     -4.1971260E-04
   9.260000     -3.7909573E-04
   9.280000     -3.3797335E-04
   9.300000     -2.9594847E-04
   9.320000     -2.5093436E-04
   9.340000     -2.0148784E-04
   9.360000     -1.4839647E-04
   9.380000     -9.4231582E-05
   9.400000     -4.1433508E-05
   9.420000      9.3103154E-06
   9.440000      5.9072216E-05
   9.460000      1.0926533E-04
   9.480000      1.6014853E-04
   9.500000      2.1047820E-04
   9.520000      2.5841445E-04
   9.540000      3.0277070E-04
   9.560000      3.4358655E-04
   9.580000      3.8170835E-04
   9.600000      4.1785784E-04
   9.620000      4.5193484E-04
   9.640000      4.8298674E-04
   9.660000      5.0975510E-04
   9.680000      5.3136353E-04
   9.700000      5.4768153E-04
   9.720000      5.5913470E-04
   9.740000      5.6610082E-04
   9.760000      5.6834298E-04
   9.780000      5.6496001E-04
   9.800000      5.5496721E-04
   9.820000      5.3807383E-04
   9.840000      5.1496923E-04
   9.860000      4.8678150E-04
   9.880000      4.5412331E-04
   9.900000      4.1660186E-04
   9.920000      3.7333532E-04
   9.940000      3.2409595E-04
   9.960000      2.7004065E-04
   9.980000      2.1327981E-04
   10.00000      1.5558834E-04
   10.02000      9.7404503E-05
   10.04000      3.8057184E-05
   10.06000     -2.2953280E-05
   10.08000     -8.4786028E-05
   10.10000     -1.4528444E-04
   10.12000     -2.0218108E-04
   10.14000     -2.5438902E-04
   10.16000     -3.0222986E-04
   10.18000     -3.4644530E-04
   10.20000     -3.8693583E-04
   10.22000     -4.2236410E-04
   10.24000     -4.5093073E-04
   10.26000     -4.7158956E-04
   10.28000     -4.8465485E-04
   10.30000     -4.9135764E-04
   10.32000     -4.9281231E-04
   10.34000     -4.8926281E-04
   10.36000     -4.8013491E-04
   10.38000     -4.6473183E-04
   10.40000     -4.4296842E-04
   10.42000     -4.1561224E-04
   10.44000     -3.8391791E-04
   10.46000     -3.4896019E-04
   10.48000     -3.1114122E-04
   10.50000     -2.7022260E-04
   10.52000     -2.2588715E-04
   10.54000     -1.7844590E-04
   10.56000     -1.2912907E-04
   10.58000     -7.9633392E-05
   10.60000     -3.1171749E-05
   10.62000      1.6238972E-05
   10.64000      6.3585670E-05
   10.66000      1.1179709E-04
   10.68000      1.6064096E-04
   10.70000      2.0855915E-04
   10.72000      2.5367836E-04
   10.74000      2.9518342E-04
   10.76000      3.3383275E-04
   10.78000      3.7108184E-04
   10.80000      4.0751361E-04
   10.82000      4.4194947E-04
   10.84000      4.7207583E-04
   10.86000      4.9610372E-04
   10.88000      5.1404606E-04
   10.90000      5.2750506E-04
   10.92000      5.3814339E-04
   10.94000      5.4614840E-04
   10.96000      5.4998376E-04
   10.98000      5.4759835E-04
   11.00000      5.3802307E-04
   11.02000      5.2200555E-04
   11.04000      5.0120894E-04
   11.06000      4.7673777E-04
   11.08000      4.4827975E-04
   11.10000      4.1456331E-04
   11.12000      3.7467841E-04
   11.14000      3.2909980E-04
   11.16000      2.7955929E-04
   11.18000      2.2793029E-04
   11.20000      1.7511992E-04
   11.22000      1.2090770E-04
   11.24000      6.4810170E-05
   11.26000      7.1514546E-06
   11.28000     -5.0635048E-05
   11.30000     -1.0673432E-04
   11.32000     -1.6002798E-04
   11.34000     -2.1052157E-04
   11.36000     -2.5871090E-04
   11.38000     -3.0445852E-04
   11.40000     -3.4643043E-04
   11.42000     -3.8266537E-04
   11.44000     -4.1182482E-04
   11.46000     -4.3402473E-04
   11.48000     -4.5048678E-04
   11.50000     -4.6228681E-04
   11.52000     -4.6929205E-04
   11.54000     -4.7022785E-04
   11.56000     -4.6382239E-04
   11.58000     -4.5002863E-04
   11.60000     -4.3025802E-04
   11.62000     -4.0642495E-04
   11.64000     -3.7962463E-04
   11.66000     -3.4955906E-04
   11.68000     -3.1516189E-04
   11.70000     -2.7586034E-04
   11.72000     -2.3241396E-04
   11.74000     -1.8666600E-04
   11.76000     -1.4045302E-04
   11.78000     -9.4573224E-05
   11.80000     -4.8615570E-05
   11.82000     -1.7361173E-06
   11.84000      4.6271740E-05
   11.86000      9.4465038E-05
   11.88000      1.4118852E-04
   11.90000      1.8510572E-04
   11.92000      2.2600179E-04
   11.94000      2.6470624E-04
   11.96000      3.0217413E-04
   11.98000      3.3845589E-04
   12.00000      3.7241692E-04
   12.02000      4.0248648E-04
   12.04000      4.2784555E-04
   12.06000      4.4903185E-04
   12.08000      4.6737431E-04
   12.10000      4.8367013E-04
   12.12000      4.9724238E-04
   12.14000      5.0627085E-04
   12.16000      5.0920545E-04
   12.18000      5.0606811E-04
   12.20000      4.9845601E-04
   12.22000      4.8815503E-04
   12.24000      4.7552833E-04
   12.26000      4.5911822E-04
   12.28000      4.3688327E-04
   12.30000      4.0804126E-04
   12.32000      3.7390317E-04
   12.34000      3.3692477E-04
   12.36000      2.9876319E-04
   12.38000      2.5902360E-04
   12.40000      2.1581085E-04
   12.42000      1.6763910E-04
   12.44000      1.1506949E-04
   12.46000      6.0671038E-05
   12.48000      7.3362139E-06
   12.50000     -4.3620268E-05
   12.52000     -9.2987480E-05
   12.54000     -1.4240501E-04
   12.56000     -1.9242923E-04
   12.58000     -2.4156021E-04
   12.60000     -2.8702308E-04
   12.62000     -3.2660976E-04
   12.64000     -3.6002276E-04
   12.66000     -3.8862272E-04
   12.68000     -4.1384512E-04
   12.70000     -4.3565390E-04
   12.72000     -4.5232990E-04
   12.74000     -4.6173742E-04
   12.76000     -4.6296694E-04
   12.78000     -4.5696591E-04
   12.80000     -4.4566000E-04
   12.82000     -4.3036169E-04
   12.84000     -4.1084830E-04
   12.86000     -3.8588262E-04
   12.88000     -3.5468399E-04
   12.90000     -3.1803417E-04
   12.92000     -2.7803489E-04
   12.94000     -2.3671982E-04
   12.96000     -1.9473241E-04
   12.98000     -1.5122810E-04
   13.00000     -1.0509616E-04
   13.02000     -5.6443427E-05
   13.04000     -7.0430219E-06
   13.06000      4.0668554E-05
   13.08000      8.5214881E-05
   13.10000      1.2694817E-04
   13.12000      1.6741123E-04
   13.14000      2.0771065E-04
   13.16000      2.4726451E-04
   13.18000      2.8399599E-04
   13.20000      3.1584481E-04
   13.22000      3.4235395E-04
   13.24000      3.6499029E-04
   13.26000      3.8588332E-04
   13.28000      4.0599034E-04
   13.30000      4.2421711E-04
   13.32000      4.3826902E-04
   13.34000      4.4656050E-04
   13.36000      4.4957417E-04
   13.38000      4.4946797E-04
   13.40000      4.4820417E-04
   13.42000      4.4578593E-04
   13.44000      4.4016866E-04
   13.46000      4.2899628E-04
   13.48000      4.1168451E-04
   13.50000      3.8999034E-04
   13.52000      3.6649519E-04
   13.54000      3.4230694E-04
   13.56000      3.1605916E-04
   13.58000      2.8517927E-04
   13.60000      2.4833708E-04
   13.62000      2.0684683E-04
   13.64000      1.6368349E-04
   13.66000      1.2095414E-04
   13.68000      7.8145924E-05
   13.70000      3.2832006E-05
   13.72000     -1.6728582E-05
   13.74000     -6.9460955E-05
   13.76000     -1.2182770E-04
   13.78000     -1.7043448E-04
   13.80000     -2.1455993E-04
   13.82000     -2.5628947E-04
   13.84000     -2.9808425E-04
   13.86000     -3.3996368E-04
   13.88000     -3.7886394E-04
   13.90000     -4.1078916E-04
   13.92000     -4.3385534E-04
   13.94000     -4.4952633E-04
   13.96000     -4.6096204E-04
   13.98000     -4.6996804E-04
   14.00000     -4.7524335E-04
   14.02000     -4.7343233E-04
   14.04000     -4.6200675E-04
   14.06000     -4.4144594E-04
   14.08000     -4.1487388E-04
   14.10000     -3.8555975E-04
   14.12000     -3.5449138E-04
   14.14000     -3.2006687E-04
   14.16000     -2.8005696E-04
   14.18000     -2.3406350E-04
   14.20000     -1.8436951E-04
   14.22000     -1.3452729E-04
   14.24000     -8.6953907E-05
   14.26000     -4.1567135E-05
   14.28000      3.4685759E-06
   14.30000      4.9617021E-05
   14.32000      9.6301330E-05
   14.34000      1.4105847E-04
   14.36000      1.8130644E-04
   14.38000      2.1618162E-04
   14.40000      2.4691000E-04
   14.42000      2.7546549E-04
   14.44000      3.0271610E-04
   14.46000      3.2764627E-04
   14.48000      3.4827617E-04
   14.50000      3.6343129E-04
   14.52000      3.7380902E-04
   14.54000      3.8143096E-04
   14.56000      3.8798063E-04
   14.58000      3.9347602E-04
   14.60000      3.9640535E-04
   14.62000      3.9516744E-04
   14.64000      3.8953772E-04
   14.66000      3.8089254E-04
   14.68000      3.7102847E-04
   14.70000      3.6062414E-04
   14.72000      3.4866738E-04
   14.74000      3.3330600E-04
   14.76000      3.1335984E-04
   14.78000      2.8920764E-04
   14.80000      2.6234300E-04
   14.82000      2.3403751E-04
   14.84000      2.0426919E-04
   14.86000      1.7180006E-04
   14.88000      1.3529760E-04
   14.90000      9.4546034E-05
   14.92000      5.0759503E-05
   14.94000      5.7763909E-06
   14.96000     -3.9176626E-05
   14.98000     -8.4139057E-05
   15.00000     -1.2997298E-04
   15.02000     -1.7719992E-04
   15.04000     -2.2507489E-04
   15.06000     -2.7166028E-04
   15.08000     -3.1485167E-04
   15.10000     -3.5352694E-04
   15.12000     -3.8787542E-04
   15.14000     -4.1863127E-04
   15.16000     -4.4585625E-04
   15.18000     -4.6832548E-04
   15.20000     -4.8408695E-04
   15.22000     -4.9176457E-04
   15.24000     -4.9150240E-04
   15.26000     -4.8471335E-04
   15.28000     -4.7281987E-04
   15.30000     -4.5607181E-04
   15.32000     -4.3349236E-04
   15.34000     -4.0402162E-04
   15.36000     -3.6784957E-04
   15.38000     -3.2673459E-04
   15.40000     -2.8299165E-04
   15.42000     -2.3803109E-04
   15.44000     -1.9175016E-04
   15.46000     -1.4332490E-04
   15.48000     -9.2689821E-05
   15.50000     -4.1364154E-05
   15.52000      8.1399967E-06
   15.54000      5.3829091E-05
   15.56000      9.5348572E-05
   15.58000      1.3375915E-04
   15.60000      1.7020397E-04
   15.62000      2.0465089E-04
   15.64000      2.3578046E-04
   15.66000      2.6205697E-04
   15.68000      2.8300658E-04
   15.70000      2.9960056E-04
   15.72000      3.1345861E-04
   15.74000      3.2558909E-04
   15.76000      3.3572261E-04
   15.78000      3.4274126E-04
   15.80000      3.4579067E-04
   15.82000      3.4514716E-04
   15.84000      3.4216943E-04
   15.86000      3.3841224E-04
   15.88000      3.3460738E-04
   15.90000      3.3026931E-04
   15.92000      3.2417892E-04
   15.94000      3.1534524E-04
   15.96000      3.0371285E-04
   15.98000      2.9009182E-04
   16.00000      2.7537570E-04
   16.02000      2.5966187E-04
   16.04000      2.4198447E-04
   16.06000      2.2091316E-04
   16.08000      1.9558139E-04
   16.10000      1.6632391E-04
   16.12000      1.3438091E-04
   16.14000      1.0088606E-04
   16.16000      6.5983128E-05
   16.18000      2.8844219E-05
   16.20000     -1.1398755E-05
   16.22000     -5.4610762E-05
   16.24000     -9.9425983E-05
   16.26000     -1.4405097E-04
   16.28000     -1.8737873E-04
   16.30000     -2.2939732E-04
   16.32000     -2.7051737E-04
   16.34000     -3.1045065E-04
   16.36000     -3.4770783E-04
   16.38000     -3.8022108E-04
   16.40000     -4.0654922E-04
   16.42000     -4.2656911E-04
   16.44000     -4.4102702E-04
   16.46000     -4.5038396E-04
   16.48000     -4.5404237E-04
   16.50000     -4.5067995E-04
   16.52000     -4.3938032E-04
   16.54000     -4.2051435E-04
   16.56000     -3.9556625E-04
   16.58000     -3.6607357E-04
   16.60000     -3.3264616E-04
   16.62000     -2.9493158E-04
   16.64000     -2.5252174E-04
   16.66000     -2.0596528E-04
   16.68000     -1.5699057E-04
   16.70000     -1.0776058E-04
   16.72000     -5.9805236E-05
   16.74000     -1.3504499E-05
   16.76000      3.1511190E-05
   16.78000      7.5435135E-05
   16.80000      1.1760669E-04
   16.82000      1.5660278E-04
   16.84000      1.9099438E-04
   16.86000      2.2016760E-04
   16.88000      2.4458725E-04
   16.90000      2.6531314E-04
   16.92000      2.8313621E-04