  -2.400000      0.0000000E+00
  -2.380000      0.0000000E+00
  -2.360000      0.0000000E+00
  -2.340000      0.0000000E+00
  -2.320000      0.0000000E+00
  -2.300000      0.0000000E+00
  -2.280000      0.0000000E+00
  -2.260000      0.0000000E+00
  -2.240000      0.0000000E+00
  -2.220000      0.0000000E+00
  -2.200000      0.0000000E+00
  -2.180000      0.0000000E+00
  -2.160000      0.0000000E+00
  -2.140000      0.0000000E+00
  -2.120000      0.0000000E+00
  -2.100000      0.0000000E+00
  -2.080000      0.0000000E+00
  -2.060000      0.0000000E+00
  -2.040000      0.0000000E+00
  -2.020000      0.0000000E+00
  -2.000000      0.0000000E+00
  -1.980000      0.0000000E+00
  -1.960000      0.0000000E+00
  -1.940000      0.0000000E+00
  -1.920000      0.0000000E+00
  -1.900000      0.0000000E+00
  -1.880000      0.0000000E+00
  -1.860000      0.0000000E+00
  -1.840000      0.0000000E+00
  -1.820000      0.0000000E+00
  -1.800000      0.0000000E+00
  -1.780000      0.0000000E+00
  -1.760000      0.0000000E+00
  -1.740000      0.0000000E+00
  -1.720000      0.0000000E+00
  -1.700000      0.0000000E+00
  -1.680000      0.0000000E+00
  -1.660000      0.0000000E+00
  -1.640000      0.0000000E+00
  -1.620000      0.0000000E+00
  -1.600000      0.0000000E+00
  -1.580000      0.0000000E+00
  -1.560000      0.0000000E+00
  -1.540000      0.0000000E+00
  -1.520000      0.0000000E+00
  -1.500000      0.0000000E+00
  -1.480000      0.0000000E+00
  -1.460000      0.0000000E+00
  -1.440000      0.0000000E+00
  -1.420000      0.0000000E+00
  -1.400000      0.0000000E+00
  -1.380000      0.0000000E+00
  -1.360000      0.0000000E+00
  -1.340000      0.0000000E+00
  -1.320000      0.0000000E+00
  -1.300000      0.0000000E+00
  -1.280000      0.0000000E+00
  -1.260000      0.0000000E+00
  -1.240000      0.0000000E+00
  -1.220000      0.0000000E+00
  -1.200000      0.0000000E+00
  -1.180000      0.0000000E+00
  -1.160000      0.0000000E+00
  -1.140000      0.0000000E+00
  -1.120000      0.0000000E+00
  -1.100000      0.0000000E+00
  -1.080000      0.0000000E+00
  -1.060000      0.0000000E+00
  -1.040000      0.0000000E+00
  -1.020000      0.0000000E+00
  -1.000000      0.0000000E+00
 -0.9800000      0.0000000E+00
 -0.9600000      0.0000000E+00
 -0.9400000      0.0000000E+00
 -0.9200000      0.0000000E+00
 -0.9000000      0.0000000E+00
 -0.8800000      0.0000000E+00
 -0.8600000      0.0000000E+00
 -0.8400000      0.0000000E+00
 -0.8200000      0.0000000E+00
 -0.8000000      0.0000000E+00
 -0.7800000      0.0000000E+00
 -0.7600000      0.0000000E+00
 -0.7400000      0.0000000E+00
 -0.7200000      0.0000000E+00
 -0.7000000      0.0000000E+00
 -0.6800000      0.0000000E+00
 -0.6600000      0.0000000E+00
 -0.6400000      0.0000000E+00
 -0.6200000      0.0000000E+00
 -0.6000000      0.0000000E+00
 -0.5800000      0.0000000E+00
 -0.5600000      0.0000000E+00
 -0.5400000      0.0000000E+00
 -0.5200000      0.0000000E+00
 -0.5000000      0.0000000E+00
 -0.4800000      0.0000000E+00
 -0.4600000      0.0000000E+00
 -0.4400000      0.0000000E+00
 -0.4200000      0.0000000E+00
 -0.4000000      0.0000000E+00
 -0.3800000      0.0000000E+00
 -0.3600000      0.0000000E+00
 -0.3400000      0.0000000E+00
 -0.3200000      0.0000000E+00
 -0.3000000      0.0000000E+00
 -0.2800000      0.0000000E+00
 -0.2600000      0.0000000E+00
 -0.2400000      0.0000000E+00
 -0.2200000      0.0000000E+00
 -0.2000000      0.0000000E+00
 -0.1800000      0.0000000E+00
 -0.1600000      0.0000000E+00
 -0.1400000      0.0000000E+00
 -0.1200000      0.0000000E+00
 -0.1000000      0.0000000E+00
 -7.9999998E-02  0.0000000E+00
 -5.9999999E-02  0.0000000E+00
 -3.9999999E-02  0.0000000E+00
 -2.0000000E-02  0.0000000E+00
  0.0000000E+00  0.0000000E+00
  2.0000000E-02  0.0000000E+00
  3.9999999E-02  0.0000000E+00
  5.9999999E-02  0.0000000E+00
  7.9999998E-02  0.0000000E+00
  0.1000000      0.0000000E+00
  0.1200000      0.0000000E+00
  0.1400000      0.0000000E+00
  0.1600000      0.0000000E+00
  0.1800000      0.0000000E+00
  0.2000000      0.0000000E+00
  0.2200000      0.0000000E+00
  0.2400000      0.0000000E+00
  0.2600000      0.0000000E+00
  0.2800000      0.0000000E+00
  0.3000000      0.0000000E+00
  0.3200000      0.0000000E+00
  0.3400000      0.0000000E+00
  0.3600000      0.0000000E+00
  0.3800000      0.0000000E+00
  0.4000000      0.0000000E+00
  0.4200000      0.0000000E+00
  0.4400000      0.0000000E+00
  0.4600000      0.0000000E+00
  0.4800000      0.0000000E+00
  0.5000000      0.0000000E+00
  0.5200000      0.0000000E+00
  0.5400000      0.0000000E+00
  0.5600000      0.0000000E+00
  0.5800000      0.0000000E+00
  0.6000000      0.0000000E+00
  0.6200000      0.0000000E+00
  0.6400000      0.0000000E+00
  0.6600000      0.0000000E+00
  0.6800000      0.0000000E+00
  0.7000000      0.0000000E+00
  0.7200000      0.0000000E+00
  0.7400000      0.0000000E+00
  0.7600000      0.0000000E+00
  0.7800000      0.0000000E+00
  0.8000000      0.0000000E+00
  0.8200000      0.0000000E+00
  0.8400000      0.0000000E+00
  0.8600000      0.0000000E+00
  0.8800000      0.0000000E+00
  0.9000000      0.0000000E+00
  0.9200000      0.0000000E+00
  0.9400000      0.0000000E+00
  0.9600000      0.0000000E+00
  0.9800000      0.0000000E+00
   1.000000      0.0000000E+00
   1.020000      0.0000000E+00
   1.040000      0.0000000E+00
   1.060000      0.0000000E+00
   1.080000      0.0000000E+00
   1.100000      0.0000000E+00
   1.120000      0.0000000E+00
   1.140000      0.0000000E+00
   1.160000      0.0000000E+00
   1.180000      0.0000000E+00
   1.200000      0.0000000E+00
   1.220000      0.0000000E+00
   1.240000      0.0000000E+00
   1.260000      0.0000000E+00
   1.280000      0.0000000E+00
   1.300000      0.0000000E+00
   1.320000      0.0000000E+00
   1.340000      0.0000000E+00
   1.360000      0.0000000E+00
   1.380000      0.0000000E+00
   1.400000      0.0000000E+00
   1.420000      0.0000000E+00
   1.440000      0.0000000E+00
   1.460000      0.0000000E+00
   1.480000      0.0000000E+00
   1.500000      0.0000000E+00
   1.520000      0.0000000E+00
   1.540000      0.0000000E+00
   1.560000      0.0000000E+00
   1.580000      0.0000000E+00
   1.600000      0.0000000E+00
   1.620000      0.0000000E+00
   1.640000      0.0000000E+00
   1.660000      0.0000000E+00
   1.680000      0.0000000E+00
   1.700000      0.0000000E+00
   1.720000      0.0000000E+00
   1.740000      0.0000000E+00
   1.760000      0.0000000E+00
   1.780000      0.0000000E+00
   1.800000      0.0000000E+00
   1.820000      0.0000000E+00
   1.840000      0.0000000E+00
   1.860000      0.0000000E+00
   1.880000      0.0000000E+00
   1.900000      0.0000000E+00
   1.920000      0.0000000E+00
   1.940000      0.0000000E+00
   1.960000      0.0000000E+00
   1.980000      0.0000000E+00
   2.000000      0.0000000E+00
   2.020000      0.0000000E+00
   2.040000      0.0000000E+00
   2.060000      0.0000000E+00
   2.080000      0.0000000E+00
   2.100000      0.0000000E+00
   2.120000      0.0000000E+00
   2.140000      0.0000000E+00
   2.160000      0.0000000E+00
   2.180000      0.0000000E+00
   2.200000      0.0000000E+00
   2.220000      0.0000000E+00
   2.240000      0.0000000E+00
   2.260000      0.0000000E+00
   2.280000      0.0000000E+00
   2.300000      0.0000000E+00
   2.320000      0.0000000E+00
   2.340000      0.0000000E+00
   2.360000      0.0000000E+00
   2.380000      0.0000000E+00
   2.400000      0.0000000E+00
   2.420000      0.0000000E+00
   2.440000      0.0000000E+00
   2.460000      0.0000000E+00
   2.480000      0.0000000E+00
   2.500000      0.0000000E+00
   2.520000      0.0000000E+00
   2.540000      0.0000000E+00
   2.560000      0.0000000E+00
   2.580000      0.0000000E+00
   2.600000      0.0000000E+00
   2.620000      0.0000000E+00
   2.640000      0.0000000E+00
   2.660000      0.0000000E+00
   2.680000      0.0000000E+00
   2.700000      0.0000000E+00
   2.720000      0.0000000E+00
   2.740000      0.0000000E+00
   2.760000      0.0000000E+00
   2.780000      0.0000000E+00
   2.800000      0.0000000E+00
   2.820000      0.0000000E+00
   2.840000      0.0000000E+00
   2.860000      0.0000000E+00
   2.880000      0.0000000E+00
   2.900000      0.0000000E+00
   2.920000      0.0000000E+00
   2.940000      0.0000000E+00
   2.960000      0.0000000E+00
   2.980000      0.0000000E+00
   3.000000      0.0000000E+00
   3.020000      0.0000000E+00
   3.040000      0.0000000E+00
   3.060000      0.0000000E+00
   3.080000      0.0000000E+00
   3.100000      0.0000000E+00
   3.120000      0.0000000E+00
   3.140000      0.0000000E+00
   3.160000      0.0000000E+00
   3.180000      0.0000000E+00
   3.200000      0.0000000E+00
   3.220000      0.0000000E+00
   3.240000      0.0000000E+00
   3.260000      0.0000000E+00
   3.280000      0.0000000E+00
   3.300000      0.0000000E+00
   3.320000      0.0000000E+00
   3.340000      0.0000000E+00
   3.360000      0.0000000E+00
   3.380000      0.0000000E+00
   3.400000      0.0000000E+00
   3.420000      0.0000000E+00
   3.440000      0.0000000E+00
   3.460000      0.0000000E+00
   3.480000      0.0000000E+00
   3.500000      0.0000000E+00
   3.520000      0.0000000E+00
   3.540000      0.0000000E+00
   3.560000      0.0000000E+00
   3.580000      0.0000000E+00
   3.600000      0.0000000E+00
   3.620000      0.0000000E+00
   3.640000      0.0000000E+00
   3.660000      0.0000000E+00
   3.680000      0.0000000E+00
   3.700000      0.0000000E+00
   3.720000      0.0000000E+00
   3.740000      0.0000000E+00
   3.760000      0.0000000E+00
   3.780000      0.0000000E+00
   3.800000      0.0000000E+00
   3.820000      0.0000000E+00
   3.840000      0.0000000E+00
   3.860000      0.0000000E+00
   3.880000      0.0000000E+00
   3.900000      0.0000000E+00
   3.920000      0.0000000E+00
   3.940000      0.0000000E+00
   3.960000      0.0000000E+00
   3.980000      0.0000000E+00
   4.000000      0.0000000E+00
   4.020000      0.0000000E+00
   4.040000      0.0000000E+00
   4.060000      0.0000000E+00
   4.080000      0.0000000E+00
   4.100000      0.0000000E+00
   4.120000      0.0000000E+00
   4.140000      0.0000000E+00
   4.160000      0.0000000E+00
   4.180000      0.0000000E+00
   4.200000      0.0000000E+00
   4.220000      0.0000000E+00
   4.240000      0.0000000E+00
   4.260000      0.0000000E+00
   4.280000      0.0000000E+00
   4.300000      0.0000000E+00
   4.320000      0.0000000E+00
   4.340000      0.0000000E+00
   4.360000      0.0000000E+00
   4.380000      0.0000000E+00
   4.400000      0.0000000E+00
   4.420000      0.0000000E+00
   4.440000      0.0000000E+00
   4.460000      0.0000000E+00
   4.480000      0.0000000E+00
   4.500000      0.0000000E+00
   4.520000      0.0000000E+00
   4.540000      0.0000000E+00
   4.560000      0.0000000E+00
   4.580000      0.0000000E+00
   4.600000      0.0000000E+00
   4.620000      0.0000000E+00
   4.640000      0.0000000E+00
   4.660000      0.0000000E+00
   4.680000      0.0000000E+00
   4.700000      0.0000000E+00
   4.720000      0.0000000E+00
   4.740000      0.0000000E+00
   4.760000      0.0000000E+00
   4.780000      0.0000000E+00
   4.800000      0.0000000E+00
   4.820000      0.0000000E+00
   4.840000      0.0000000E+00
   4.860000      0.0000000E+00
   4.880000      0.0000000E+00
   4.900000      0.0000000E+00
   4.920000      0.0000000E+00
   4.940000      0.0000000E+00
   4.960000      0.0000000E+00
   4.980000      0.0000000E+00
   5.000000      0.0000000E+00
   5.020000      0.0000000E+00
   5.040000      0.0000000E+00
   5.060000      0.0000000E+00
   5.080000      0.0000000E+00
   5.100000      0.0000000E+00
   5.120000      0.0000000E+00
   5.140000      0.0000000E+00
   5.160000      0.0000000E+00
   5.180000      0.0000000E+00
   5.200000      0.0000000E+00
   5.220000      0.0000000E+00
   5.240000      0.0000000E+00
   5.260000      0.0000000E+00
   5.280000      0.0000000E+00
   5.300000      0.0000000E+00
   5.320000      0.0000000E+00
   5.340000      0.0000000E+00
   5.360000      0.0000000E+00
   5.380000      0.0000000E+00
   5.400000      0.0000000E+00
   5.420000      0.0000000E+00
   5.440000      0.0000000E+00
   5.460000      0.0000000E+00
   5.480000      0.0000000E+00
   5.500000      0.0000000E+00
   5.520000      0.0000000E+00
   5.540000      0.0000000E+00
   5.560000      0.0000000E+00
   5.580000      0.0000000E+00
   5.600000      0.0000000E+00
   5.620000      0.0000000E+00
   5.640000      0.0000000E+00
   5.660000      0.0000000E+00
   5.680000      0.0000000E+00
   5.700000      0.0000000E+00
   5.720000      0.0000000E+00
   5.740000      0.0000000E+00
   5.760000      0.0000000E+00
   5.780000      0.0000000E+00
   5.800000      0.0000000E+00
   5.820000      0.0000000E+00
   5.840000      0.0000000E+00
   5.860000      0.0000000E+00
   5.880000      0.0000000E+00
   5.900000      0.0000000E+00
   5.920000      0.0000000E+00
   5.940000      0.0000000E+00
   5.960000      0.0000000E+00
   5.980000      0.0000000E+00
   6.000000      0.0000000E+00
   6.020000      0.0000000E+00
   6.040000      0.0000000E+00
   6.060000      0.0000000E+00
   6.080000      0.0000000E+00
   6.100000      0.0000000E+00
   6.120000      0.0000000E+00
   6.140000      0.0000000E+00
   6.160000      0.0000000E+00
   6.180000      0.0000000E+00
   6.200000      0.0000000E+00
   6.220000      0.0000000E+00
   6.240000      0.0000000E+00
   6.260000      0.0000000E+00
   6.280000      0.0000000E+00
   6.300000      0.0000000E+00
   6.320000      0.0000000E+00
   6.340000      0.0000000E+00
   6.360000      0.0000000E+00
   6.380000      0.0000000E+00
   6.400000      0.0000000E+00
   6.420000      0.0000000E+00
   6.440000      0.0000000E+00
   6.460000      0.0000000E+00
   6.480000      0.0000000E+00
   6.500000      0.0000000E+00
   6.520000      0.0000000E+00
   6.540000      0.0000000E+00
   6.560000      0.0000000E+00
   6.580000      0.0000000E+00
   6.600000      0.0000000E+00
   6.620000      0.0000000E+00
   6.640000      0.0000000E+00
   6.660000      0.0000000E+00
   6.680000      0.0000000E+00
   6.700000      0.0000000E+00
   6.720000      0.0000000E+00
   6.740000      0.0000000E+00
   6.760000      0.0000000E+00
   6.780000      0.0000000E+00
   6.800000      0.0000000E+00
   6.820000      0.0000000E+00
   6.840000      0.0000000E+00
   6.860000      0.0000000E+00
   6.880000      0.0000000E+00
   6.900000      0.0000000E+00
   6.920000      0.0000000E+00
   6.940000      0.0000000E+00
   6.960000      0.0000000E+00
   6.980000      0.0000000E+00
   7.000000      0.0000000E+00
   7.020000      0.0000000E+00
   7.040000      0.0000000E+00
   7.060000      0.0000000E+00
   7.080000      0.0000000E+00
   7.100000      0.0000000E+00
   7.120000      0.0000000E+00
   7.140000      0.0000000E+00
   7.160000      0.0000000E+00
   7.180000      0.0000000E+00
   7.200000      0.0000000E+00
   7.220000      0.0000000E+00
   7.240000      0.0000000E+00
   7.260000      0.0000000E+00
   7.280000      0.0000000E+00
   7.300000      0.0000000E+00
   7.320000      0.0000000E+00
   7.340000      0.0000000E+00
   7.360000      0.0000000E+00
   7.380000      0.0000000E+00
   7.400000      0.0000000E+00
   7.420000      0.0000000E+00
   7.440000      0.0000000E+00
   7.460000      0.0000000E+00
   7.480000      0.0000000E+00
   7.500000      0.0000000E+00
   7.520000      0.0000000E+00
   7.540000      0.0000000E+00
   7.560000      0.0000000E+00
   7.580000      0.0000000E+00
   7.600000      0.0000000E+00
   7.620000      0.0000000E+00
   7.640000      0.0000000E+00
   7.660000      0.0000000E+00
   7.680000      0.0000000E+00
   7.700000      0.0000000E+00
   7.720000      0.0000000E+00
   7.740000      0.0000000E+00
   7.760000      0.0000000E+00
   7.780000      0.0000000E+00
   7.800000      0.0000000E+00
   7.820000      0.0000000E+00
   7.840000      0.0000000E+00
   7.860000      0.0000000E+00
   7.880000      0.0000000E+00
   7.900000      0.0000000E+00
   7.920000      0.0000000E+00
   7.940000      0.0000000E+00
   7.960000      0.0000000E+00
   7.980000      0.0000000E+00
   8.000000      0.0000000E+00
   8.020000      0.0000000E+00
   8.040000      0.0000000E+00
   8.060000      0.0000000E+00
   8.080000      0.0000000E+00
   8.100000      0.0000000E+00
   8.120000      0.0000000E+00
   8.140000      0.0000000E+00
   8.160000      0.0000000E+00
   8.180000      0.0000000E+00
   8.200000      0.0000000E+00
   8.220000      0.0000000E+00
   8.240000      0.0000000E+00
   8.260000      0.0000000E+00
   8.280000      0.0000000E+00
   8.300000      0.0000000E+00
   8.320000      0.0000000E+00
   8.340000      0.0000000E+00
   8.360000      0.0000000E+00
   8.380000      0.0000000E+00
   8.400000      0.0000000E+00
   8.420000      0.0000000E+00
   8.440000      0.0000000E+00
   8.460000      0.0000000E+00
   8.480000      0.0000000E+00
   8.500000      0.0000000E+00
   8.520000      0.0000000E+00
   8.540000      0.0000000E+00
   8.560000      0.0000000E+00
   8.580000      0.0000000E+00
   8.600000      0.0000000E+00
   8.620000      0.0000000E+00
   8.640000      0.0000000E+00
   8.660000      0.0000000E+00
   8.680000      0.0000000E+00
   8.700000      0.0000000E+00
   8.720000      0.0000000E+00
   8.740000      0.0000000E+00
   8.760000      0.0000000E+00
   8.780000      0.0000000E+00
   8.800000      0.0000000E+00
   8.820000      0.0000000E+00
   8.840000      0.0000000E+00
   8.860000      0.0000000E+00
   8.880000      0.0000000E+00
   8.900000      0.0000000E+00
   8.920000      0.0000000E+00
   8.940000      0.0000000E+00
   8.960000      0.0000000E+00
   8.980000      0.0000000E+00
   9.000000      0.0000000E+00
   9.020000      0.0000000E+00
   9.040000      0.0000000E+00
   9.060000      0.0000000E+00
   9.080000      0.0000000E+00
   9.100000      0.0000000E+00
   9.120000      0.0000000E+00
   9.140000      0.0000000E+00
   9.160000      0.0000000E+00
   9.180000      0.0000000E+00
   9.200000      0.0000000E+00
   9.220000      0.0000000E+00
   9.240000      0.0000000E+00
   9.260000      0.0000000E+00
   9.280000      0.0000000E+00
   9.300000      0.0000000E+00
   9.320000      0.0000000E+00
   9.340000      0.0000000E+00
   9.360000      0.0000000E+00
   9.380000      0.0000000E+00
   9.400000      0.0000000E+00
   9.420000      0.0000000E+00
   9.440000      0.0000000E+00
   9.460000      0.0000000E+00
   9.480000      0.0000000E+00
   9.500000      0.0000000E+00
   9.520000      0.0000000E+00
   9.540000      0.0000000E+00
   9.560000      0.0000000E+00
   9.580000      0.0000000E+00
   9.600000      0.0000000E+00
   9.620000      0.0000000E+00
   9.640000     -2.0648372E-38
   9.660000     -3.2280897E-38
   9.680000     -1.8661498E-38
   9.700000      0.0000000E+00
   9.720000     -1.4573505E-38
   9.740000     -1.0095456E-37
   9.760000     -2.1780144E-37
   9.780000     -2.6663268E-37
   9.800000     -9.1255426E-38
   9.820000      1.9848597E-37
   9.840000      4.2363383E-37
   9.860000      4.8088819E-37
   9.880000      3.1092542E-37
   9.900000      2.4074664E-37
   9.920000      2.7443363E-37
   9.940000      4.3699885E-37
   9.960000      1.0177226E-36
   9.980000      1.7415307E-36
   10.00000      5.6821922E-37
   10.02000     -3.0511102E-36
   10.04000     -5.6341271E-36
   10.06000     -3.1514154E-36
   10.08000      4.5000975E-36
   10.10000      9.9755676E-36
   10.12000      4.0995853E-36
   10.14000     -1.1974733E-35
   10.16000     -2.3790011E-35
   10.18000     -1.4986280E-35
   10.20000      1.5396113E-35
   10.22000      4.4751822E-35
   10.24000      4.2502590E-35
   10.26000     -2.4751573E-36
   10.28000     -6.3530137E-35
   10.30000     -8.8237600E-35
   10.32000     -3.8696884E-35
   10.34000      6.5743270E-35
   10.36000      1.4790760E-34
   10.38000      1.2243597E-34
   10.40000     -2.7017395E-35
   10.42000     -2.0707940E-34
   10.44000     -2.6195251E-34
   10.46000     -9.3633331E-35
   10.48000      2.2582144E-34
   10.50000      4.5858174E-34
   10.52000      3.5987087E-34
   10.54000     -1.0009020E-34
   10.56000     -6.3196936E-34
   10.58000     -7.7898688E-34
   10.60000     -2.7457617E-34
   10.62000      6.4845439E-34
   10.64000      1.2982182E-33
   10.66000      9.9555133E-34
   10.68000     -3.0648088E-34
   10.70000     -1.7674186E-33
   10.72000     -2.1227351E-33
   10.74000     -6.8508738E-34
   10.76000      1.8443580E-33
   10.78000      3.5501399E-33
   10.80000      2.6282941E-33
   10.82000     -9.5475497E-34
   10.84000     -4.8548155E-33
   10.86000     -5.6811238E-33
   10.88000     -1.6971009E-33
   10.90000      5.0906616E-33
   10.92000      9.5235907E-33
   10.94000      6.8911806E-33
   10.96000     -2.7196979E-33
   10.98000     -1.2974390E-32
   11.00000     -1.4952979E-32
   11.02000     -4.2755334E-33
   11.04000      1.3568624E-32
   11.06000      2.4997410E-32
   11.08000      1.7863463E-32
   11.10000     -7.3167970E-33
   11.12000     -3.3876777E-32
   11.14000     -3.8752296E-32
   11.16000     -1.0919463E-32
   11.18000      3.5140672E-32
   11.20000      6.4398429E-32
   11.22000      4.5910589E-32
   11.24000     -1.8630382E-32
   11.26000     -8.6452326E-32
   11.28000     -9.8913042E-32
   11.30000     -2.8313315E-32
   11.32000      8.8414255E-32
   11.34000      1.6273647E-31
   11.36000      1.1680035E-31
   11.38000     -4.5070596E-32
   11.40000     -2.1570867E-31
   11.42000     -2.4847734E-31
   11.44000     -7.3968793E-32
   11.46000      2.1651275E-31
   11.48000      4.0354209E-31
   11.50000      2.9372383E-31
   11.52000     -1.0388556E-31
   11.54000     -5.2675731E-31
   11.56000     -6.1421310E-31
   11.58000     -1.9324757E-31
   11.60000      5.1676241E-31
   11.62000      9.8217509E-31
   11.64000      7.2904164E-31
   11.66000     -2.2805691E-31
   11.68000     -1.2596643E-30
   11.70000     -1.4932743E-30
   11.72000     -5.0126831E-31
   11.74000      1.2031230E-30
   11.76000      2.3461144E-30
   11.78000      1.7830763E-30
   11.80000     -4.7521005E-31
   11.82000     -2.9505597E-30
   11.84000     -3.5679199E-30
   11.86000     -1.2824639E-30
   11.88000      2.7349368E-30
   11.90000      5.4995840E-30
   11.92000      4.2899683E-30
   11.94000     -9.3544496E-31
   11.96000     -6.7740899E-30
   11.98000     -8.3750531E-30
   12.00000     -3.2211833E-30
   12.02000      6.0785054E-30
   12.04000      1.2655966E-29
   12.06000      1.0144768E-29
   12.08000     -1.7204776E-30
   12.10000     -1.5255824E-29
   12.12000     -1.9313754E-29
   12.14000     -7.9256140E-30
   12.16000      1.3221894E-29
   12.18000      2.8601438E-29
   12.20000      2.3565956E-29
   12.22000     -2.8888744E-30
   12.24000     -3.3723626E-29
   12.26000     -4.3753096E-29
   12.28000     -1.9067317E-29
   12.30000      2.8187399E-29
   12.32000      6.3501323E-29
   12.34000      5.3741908E-29
   12.36000     -4.2280000E-30
   12.38000     -7.3259763E-29
   12.40000     -9.7392965E-29
   12.42000     -4.4798169E-29
   12.44000      5.9039425E-29
   12.46000      1.3865192E-28
   12.48000      1.2033812E-28
   12.50000     -4.6789072E-30
   12.52000     -1.5665559E-28
   12.54000     -2.1321499E-28
   12.56000     -1.0285217E-28
   12.58000      1.2177283E-28
   12.60000      2.9809175E-28
   12.62000      2.6479478E-28
   12.64000     -9.0409913E-31
   12.66000     -3.3021619E-28
   12.68000     -4.5951441E-28
   12.70000     -2.3101758E-28
   12.72000      2.4786319E-28
   12.74000      6.3177840E-28
   12.76000      5.7305843E-28
   12.78000      1.5761371E-29
   12.80000     -6.8730806E-28
   12.82000     -9.7609818E-28
   12.84000     -5.0830872E-28
   12.86000      4.9928130E-28
   12.88000      1.3222043E-27
   12.90000      1.2216386E-27
   12.92000      6.5997653E-29
   12.94000     -1.4153910E-27
   12.96000     -2.0475108E-27
   12.98000     -1.0988514E-27
   13.00000      9.9712413E-28
   13.02000      2.7375220E-27
   13.04000      2.5715408E-27
   13.06000      1.9899526E-28
   13.08000     -2.8875593E-27
   13.10000     -4.2496646E-27
   13.12000     -2.3431948E-27
   13.14000      1.9737962E-27
   13.16000      5.6147803E-27
   13.18000      5.3580835E-27
   13.20000      5.3185721E-28
   13.22000     -5.8392717E-27
   13.24000     -8.7425679E-27
   13.26000     -4.9483954E-27
   13.28000      3.8665767E-27
   13.30000      1.1421846E-26
   13.32000      1.1079546E-26
   13.34000      1.3482024E-27
   13.36000     -1.1705566E-26
   13.38000     -1.7860401E-26
   13.40000     -1.0399184E-26
   13.42000      7.4634562E-27
   13.44000      2.3061550E-26
   13.46000      2.2802146E-26
   13.48000      3.3654740E-27
   13.50000     -2.3225573E-26
   13.52000     -3.6279100E-26
   13.54000     -2.1853769E-26
   13.56000      1.4068137E-26
   13.58000      4.6186305E-26
   13.60000      4.6793577E-26
   13.62000      8.4223543E-27
   13.64000     -4.5460171E-26
   13.66000     -7.3268304E-26
   13.68000     -4.6056291E-26
   13.70000      2.5554336E-26
   13.72000      9.1589765E-26
   13.74000      9.5804100E-26
   13.76000      2.1178137E-26
   13.78000     -8.7382560E-26
   13.80000     -1.4698035E-25
   13.82000     -9.7435692E-26
   13.84000      4.3790729E-26
   13.86000      1.7934889E-25
   13.88000      1.9558687E-25
   13.90000      5.3295893E-26
   13.92000     -1.6383820E-25
   13.94000     -2.9223508E-25
   13.96000     -2.0670614E-25
   13.98000      6.7873771E-26
   14.00000      3.4522797E-25
   14.02000      3.9721062E-25
   14.04000      1.3309770E-25
   14.06000     -2.9667641E-25
   14.08000     -5.7363347E-25
   14.10000     -4.3794994E-25
   14.12000      8.5753149E-26
   14.14000      6.4927991E-25
   14.16000      7.9916013E-25
   14.18000      3.2643266E-25
   14.20000     -5.1170863E-25
   14.22000     -1.1061790E-24
   14.24000     -9.2138638E-25
   14.26000      5.2498780E-26
   14.28000      1.1841810E-24
   14.30000      1.5850724E-24
   14.32000      7.8027134E-25
   14.34000     -8.2176582E-25
   14.36000     -2.0830775E-24
   14.38000     -1.9130084E-24
   14.40000     -1.6147000E-25
   14.42000      2.0723269E-24
   14.44000      3.0809101E-24
   14.46000      1.8074261E-24
   14.48000     -1.1738094E-24
   14.50000     -3.8005843E-24
   14.52000     -3.8923300E-24
   14.54000     -8.8006417E-25
   14.56000      3.4251642E-24
   14.58000      5.8265314E-24
   14.60000      4.0364794E-24
   14.62000     -1.3198564E-24
   14.64000     -6.6511995E-24
   14.66000     -7.7054608E-24
   14.68000     -2.8341666E-24
   14.70000      5.2083958E-24
   14.72000      1.0634833E-23
   14.74000      8.6568728E-24
   14.76000     -5.3476703E-25
   14.78000     -1.1008692E-23
   14.80000     -1.4735052E-23
   14.82000     -7.5438469E-24
   14.84000      6.8917531E-24
   14.86000      1.8539842E-23
   14.88000      1.7760358E-23
   14.90000      2.9400175E-24
   14.92000     -1.6828109E-23
   14.94000     -2.6981861E-23
   14.96000     -1.7912040E-23
   14.98000      6.6852917E-24
   15.00000      3.0395391E-23
   15.02000      3.4667679E-23
   15.04000      1.2848182E-23
   15.06000     -2.2654227E-23
   15.08000     -4.6761033E-23
   15.10000     -3.8968176E-23
   15.12000      9.5226709E-26
   15.14000      4.5665845E-23
   15.16000      6.3901545E-23
   15.18000      3.6332665E-23
   15.20000     -2.3526850E-23
   15.22000     -7.5348908E-23
   15.24000     -7.8418429E-23
   15.26000     -2.2514390E-23
   15.28000      5.9523967E-23
   15.30000      1.0988661E-22
   15.32000      8.5541413E-23
   15.34000     -7.0573185E-24
   15.36000     -1.0917919E-22
   15.38000     -1.4582000E-22
   15.40000     -7.9311186E-23
   15.42000      5.6893134E-23
   15.44000      1.7233077E-22
   15.46000      1.7807283E-22
   15.48000      5.2802133E-23
   15.50000     -1.3128073E-22
   15.52000     -2.4760804E-22
   15.54000     -2.0008292E-22
   15.56000      1.9307004E-24
   15.58000      2.3461953E-22
   15.60000      3.3276834E-22
   15.62000      2.0366104E-22
   15.64000     -9.4665322E-23
   15.66000     -3.7243959E-22
   15.68000     -4.2497348E-22
   15.70000     -1.7786148E-22
   15.72000      2.3913083E-22
   15.74000      5.5296095E-22
   15.76000      5.2013030E-22
   15.78000      1.0583364E-22
   15.80000     -4.5677005E-22
   15.82000     -7.8838804E-22
   15.84000     -6.0975929E-22
   15.86000      4.1481033E-23
   15.88000      7.8183194E-22
   15.90000      1.0941057E-21
   15.92000      6.7322930E-22
   15.94000     -3.1556809E-22
   15.96000     -1.2662021E-21
   15.98000     -1.4826234E-21
   16.00000     -6.6289762E-22
   16.02000      8.0407136E-22
   16.04000      1.9804253E-21
   16.06000      1.9478157E-21
   16.08000      4.8023610E-22
   16.10000     -1.6453402E-21
   16.12000     -3.0048564E-21
   16.14000     -2.4342524E-21
   16.16000      5.7028825E-23
   16.18000      3.0375328E-21
   16.20000      4.4022730E-21
   16.22000      2.7870607E-21
   16.24000     -1.2527640E-21
   16.26000     -5.2312756E-21
   16.28000     -6.1614260E-21
   16.30000     -2.6807714E-21
   16.32000      3.5648904E-21
   16.34000      8.4896067E-21
   16.36000      8.1011727E-21
   16.38000      1.5319976E-21
   16.40000     -7.6134544E-21
   16.42000     -1.2994435E-20
   16.44000     -9.7286529E-21
   16.46000      1.5887046E-21
   16.48000      1.4135269E-20
   16.50000      1.8677105E-20
   16.52000      1.0054298E-20
   16.54000     -8.0158478E-21
   16.56000     -2.3846866E-20
   16.58000     -2.4954910E-20
   16.60000     -7.3830426E-21
   16.62000      1.9470861E-20
   16.64000      3.7171687E-20
   16.66000      3.0368346E-20
   16.68000     -8.7423863E-22
   16.70000     -3.7899787E-20
   16.72000     -5.3789946E-20
   16.74000     -3.2139421E-20
   16.76000      1.8292353E-20
   16.78000      6.5083475E-20
   16.80000      7.1983945E-20
   16.82000      2.5709605E-20
   16.84000     -4.9313316E-20
   16.86000     -1.0193037E-19
   16.88000     -8.7784161E-20
   16.90000     -4.3686490E-21
   16.92000      9.8769107E-20