  -2.400000      0.0000000E+00
  -2.380000      0.0000000E+00
  -2.360000      0.0000000E+00
  -2.340000      0.0000000E+00
  -2.320000      0.0000000E+00
  -2.300000      0.0000000E+00
  -2.280000      0.0000000E+00
  -2.260000      0.0000000E+00
  -2.240000      0.0000000E+00
  -2.220000      0.0000000E+00
  -2.200000      0.0000000E+00
  -2.180000      0.0000000E+00
  -2.160000      0.0000000E+00
  -2.140000      0.0000000E+00
  -2.120000      0.0000000E+00
  -2.100000      0.0000000E+00
  -2.080000      0.0000000E+00
  -2.060000      0.0000000E+00
  -2.040000      0.0000000E+00
  -2.020000      0.0000000E+00
  -2.000000      0.0000000E+00
  -1.980000      0.0000000E+00
  -1.960000      0.0000000E+00
  -1.940000      0.0000000E+00
  -1.920000      0.0000000E+00
  -1.900000      0.0000000E+00
  -1.880000      0.0000000E+00
  -1.860000      0.0000000E+00
  -1.840000      0.0000000E+00
  -1.820000      0.0000000E+00
  -1.800000      0.0000000E+00
  -1.780000      0.0000000E+00
  -1.760000      0.0000000E+00
  -1.740000      0.0000000E+00
  -1.720000      0.0000000E+00
  -1.700000      0.0000000E+00
  -1.680000      0.0000000E+00
  -1.660000      0.0000000E+00
  -1.640000      0.0000000E+00
  -1.620000      0.0000000E+00
  -1.600000      0.0000000E+00
  -1.580000      0.0000000E+00
  -1.560000      0.0000000E+00
  -1.540000      0.0000000E+00
  -1.520000      0.0000000E+00
  -1.500000      0.0000000E+00
  -1.480000      0.0000000E+00
  -1.460000      0.0000000E+00
  -1.440000      0.0000000E+00
  -1.420000      0.0000000E+00
  -1.400000      0.0000000E+00
  -1.380000      0.0000000E+00
  -1.360000      0.0000000E+00
  -1.340000      0.0000000E+00
  -1.320000      0.0000000E+00
  -1.300000      0.0000000E+00
  -1.280000      0.0000000E+00
  -1.260000      0.0000000E+00
  -1.240000      0.0000000E+00
  -1.220000      0.0000000E+00
  -1.200000      0.0000000E+00
  -1.180000      0.0000000E+00
  -1.160000      0.0000000E+00
  -1.140000      0.0000000E+00
  -1.120000      0.0000000E+00
  -1.100000      0.0000000E+00
  -1.080000      0.0000000E+00
  -1.060000      0.0000000E+00
  -1.040000      0.0000000E+00
  -1.020000      0.0000000E+00
  -1.000000      0.0000000E+00
 -0.9800000      0.0000000E+00
 -0.9600000      0.0000000E+00
 -0.9400000      0.0000000E+00
 -0.9200000      0.0000000E+00
 -0.9000000      0.0000000E+00
 -0.8800000      0.0000000E+00
 -0.8600000      0.0000000E+00
 -0.8400000      0.0000000E+00
 -0.8200000      0.0000000E+00
 -0.8000000      0.0000000E+00
 -0.7800000      0.0000000E+00
 -0.7600000      0.0000000E+00
 -0.7400000      0.0000000E+00
 -0.7200000      0.0000000E+00
 -0.7000000      0.0000000E+00
 -0.6800000      0.0000000E+00
 -0.6600000      0.0000000E+00
 -0.6400000      0.0000000E+00
 -0.6200000      0.0000000E+00
 -0.6000000      0.0000000E+00
 -0.5800000      0.0000000E+00
 -0.5600000      0.0000000E+00
 -0.5400000      0.0000000E+00
 -0.5200000      0.0000000E+00
 -0.5000000      0.0000000E+00
 -0.4800000      0.0000000E+00
 -0.4600000      0.0000000E+00
 -0.4400000      0.0000000E+00
 -0.4200000      0.0000000E+00
 -0.4000000      0.0000000E+00
 -0.3800000      0.0000000E+00
 -0.3600000      0.0000000E+00
 -0.3400000      0.0000000E+00
 -0.3200000      0.0000000E+00
 -0.3000000      0.0000000E+00
 -0.2800000      0.0000000E+00
 -0.2600000      0.0000000E+00
 -0.2400000      0.0000000E+00
 -0.2200000      0.0000000E+00
 -0.2000000      0.0000000E+00
 -0.1800000      0.0000000E+00
 -0.1600000      0.0000000E+00
 -0.1400000      0.0000000E+00
 -0.1200000      0.0000000E+00
 -0.1000000      0.0000000E+00
 -7.9999998E-02  0.0000000E+00
 -5.9999999E-02  0.0000000E+00
 -3.9999999E-02  0.0000000E+00
 -2.0000000E-02  0.0000000E+00
  0.0000000E+00  0.0000000E+00
  2.0000000E-02  0.0000000E+00
  3.9999999E-02  0.0000000E+00
  5.9999999E-02  0.0000000E+00
  7.9999998E-02  0.0000000E+00
  0.1000000      0.0000000E+00
  0.1200000      0.0000000E+00
  0.1400000      0.0000000E+00
  0.1600000      0.0000000E+00
  0.1800000      0.0000000E+00
  0.2000000      0.0000000E+00
  0.2200000      0.0000000E+00
  0.2400000      0.0000000E+00
  0.2600000      0.0000000E+00
  0.2800000      0.0000000E+00
  0.3000000      0.0000000E+00
  0.3200000      0.0000000E+00
  0.3400000      0.0000000E+00
  0.3600000      0.0000000E+00
  0.3800000      0.0000000E+00
  0.4000000      0.0000000E+00
  0.4200000      0.0000000E+00
  0.4400000      0.0000000E+00
  0.4600000      0.0000000E+00
  0.4800000      0.0000000E+00
  0.5000000      0.0000000E+00
  0.5200000      0.0000000E+00
  0.5400000      0.0000000E+00
  0.5600000      0.0000000E+00
  0.5800000      0.0000000E+00
  0.6000000      0.0000000E+00
  0.6200000      0.0000000E+00
  0.6400000      0.0000000E+00
  0.6600000      0.0000000E+00
  0.6800000      0.0000000E+00
  0.7000000      0.0000000E+00
  0.7200000      0.0000000E+00
  0.7400000      0.0000000E+00
  0.7600000      0.0000000E+00
  0.7800000      0.0000000E+00
  0.8000000      0.0000000E+00
  0.8200000      0.0000000E+00
  0.8400000      0.0000000E+00
  0.8600000      0.0000000E+00
  0.8800000      0.0000000E+00
  0.9000000      0.0000000E+00
  0.9200000      0.0000000E+00
  0.9400000      0.0000000E+00
  0.9600000      0.0000000E+00
  0.9800000      0.0000000E+00
   1.000000      0.0000000E+00
   1.020000      0.0000000E+00
   1.040000      0.0000000E+00
   1.060000      0.0000000E+00
   1.080000      0.0000000E+00
   1.100000      0.0000000E+00
   1.120000      0.0000000E+00
   1.140000      0.0000000E+00
   1.160000      0.0000000E+00
   1.180000      0.0000000E+00
   1.200000      0.0000000E+00
   1.220000      0.0000000E+00
   1.240000      0.0000000E+00
   1.260000      0.0000000E+00
   1.280000      0.0000000E+00
   1.300000      0.0000000E+00
   1.320000      0.0000000E+00
   1.340000      0.0000000E+00
   1.360000      0.0000000E+00
   1.380000      0.0000000E+00
   1.400000      0.0000000E+00
   1.420000      0.0000000E+00
   1.440000      0.0000000E+00
   1.460000      0.0000000E+00
   1.480000      0.0000000E+00
   1.500000      0.0000000E+00
   1.520000      0.0000000E+00
   1.540000      0.0000000E+00
   1.560000      0.0000000E+00
   1.580000      0.0000000E+00
   1.600000      0.0000000E+00
   1.620000      0.0000000E+00
   1.640000      0.0000000E+00
   1.660000      0.0000000E+00
   1.680000      0.0000000E+00
   1.700000      0.0000000E+00
   1.720000      0.0000000E+00
   1.740000      0.0000000E+00
   1.760000      0.0000000E+00
   1.780000      0.0000000E+00
   1.800000      0.0000000E+00
   1.820000      0.0000000E+00
   1.840000      0.0000000E+00
   1.860000      0.0000000E+00
   1.880000      0.0000000E+00
   1.900000      0.0000000E+00
   1.920000      0.0000000E+00
   1.940000      0.0000000E+00
   1.960000      0.0000000E+00
   1.980000      0.0000000E+00
   2.000000      0.0000000E+00
   2.020000      0.0000000E+00
   2.040000      0.0000000E+00
   2.060000      0.0000000E+00
   2.080000      0.0000000E+00
   2.100000      0.0000000E+00
   2.120000      0.0000000E+00
   2.140000      0.0000000E+00
   2.160000      0.0000000E+00
   2.180000      0.0000000E+00
   2.200000      0.0000000E+00
   2.220000      0.0000000E+00
   2.240000      0.0000000E+00
   2.260000      0.0000000E+00
   2.280000      0.0000000E+00
   2.300000      0.0000000E+00
   2.320000      0.0000000E+00
   2.340000      0.0000000E+00
   2.360000      0.0000000E+00
   2.380000      0.0000000E+00
   2.400000      0.0000000E+00
   2.420000      0.0000000E+00
   2.440000      0.0000000E+00
   2.460000      0.0000000E+00
   2.480000      0.0000000E+00
   2.500000      0.0000000E+00
   2.520000      0.0000000E+00
   2.540000      0.0000000E+00
   2.560000      0.0000000E+00
   2.580000      0.0000000E+00
   2.600000      0.0000000E+00
   2.620000      0.0000000E+00
   2.640000      0.0000000E+00
   2.660000      0.0000000E+00
   2.680000      0.0000000E+00
   2.700000      0.0000000E+00
   2.720000      0.0000000E+00
   2.740000      0.0000000E+00
   2.760000      0.0000000E+00
   2.780000      0.0000000E+00
   2.800000      0.0000000E+00
   2.820000      0.0000000E+00
   2.840000      0.0000000E+00
   2.860000      0.0000000E+00
   2.880000      0.0000000E+00
   2.900000      0.0000000E+00
   2.920000      0.0000000E+00
   2.940000      0.0000000E+00
   2.960000      0.0000000E+00
   2.980000      0.0000000E+00
   3.000000      0.0000000E+00
   3.020000      0.0000000E+00
   3.040000      0.0000000E+00
   3.060000      0.0000000E+00
   3.080000      0.0000000E+00
   3.100000      0.0000000E+00
   3.120000      0.0000000E+00
   3.140000      0.0000000E+00
   3.160000      0.0000000E+00
   3.180000      0.0000000E+00
   3.200000      0.0000000E+00
   3.220000      0.0000000E+00
   3.240000      0.0000000E+00
   3.260000      0.0000000E+00
   3.280000      0.0000000E+00
   3.300000      0.0000000E+00
   3.320000      0.0000000E+00
   3.340000      0.0000000E+00
   3.360000      0.0000000E+00
   3.380000      0.0000000E+00
   3.400000      0.0000000E+00
   3.420000      0.0000000E+00
   3.440000      0.0000000E+00
   3.460000      0.0000000E+00
   3.480000      0.0000000E+00
   3.500000      0.0000000E+00
   3.520000      0.0000000E+00
   3.540000      0.0000000E+00
   3.560000      0.0000000E+00
   3.580000      0.0000000E+00
   3.600000      0.0000000E+00
   3.620000      0.0000000E+00
   3.640000      0.0000000E+00
   3.660000      0.0000000E+00
   3.680000      0.0000000E+00
   3.700000      0.0000000E+00
   3.720000      0.0000000E+00
   3.740000      0.0000000E+00
   3.760000      0.0000000E+00
   3.780000      0.0000000E+00
   3.800000      0.0000000E+00
   3.820000      0.0000000E+00
   3.840000      0.0000000E+00
   3.860000      0.0000000E+00
   3.880000      0.0000000E+00
   3.900000      0.0000000E+00
   3.920000      0.0000000E+00
   3.940000      0.0000000E+00
   3.960000      0.0000000E+00
   3.980000      0.0000000E+00
   4.000000      0.0000000E+00
   4.020000      0.0000000E+00
   4.040000      0.0000000E+00
   4.060000      0.0000000E+00
   4.080000      0.0000000E+00
   4.100000      0.0000000E+00
   4.120000      0.0000000E+00
   4.140000      0.0000000E+00
   4.160000      0.0000000E+00
   4.180000      0.0000000E+00
   4.200000      0.0000000E+00
   4.220000      0.0000000E+00
   4.240000      0.0000000E+00
   4.260000      0.0000000E+00
   4.280000      0.0000000E+00
   4.300000      0.0000000E+00
   4.320000      0.0000000E+00
   4.340000      0.0000000E+00
   4.360000      0.0000000E+00
   4.380000      0.0000000E+00
   4.400000      0.0000000E+00
   4.420000      0.0000000E+00
   4.440000      0.0000000E+00
   4.460000      0.0000000E+00
   4.480000      0.0000000E+00
   4.500000      0.0000000E+00
   4.520000      0.0000000E+00
   4.540000      0.0000000E+00
   4.560000      0.0000000E+00
   4.580000      0.0000000E+00
   4.600000      0.0000000E+00
   4.620000      0.0000000E+00
   4.640000      0.0000000E+00
   4.660000      0.0000000E+00
   4.680000      0.0000000E+00
   4.700000      0.0000000E+00
   4.720000      0.0000000E+00
   4.740000      0.0000000E+00
   4.760000      0.0000000E+00
   4.780000      0.0000000E+00
   4.800000      0.0000000E+00
   4.820000      0.0000000E+00
   4.840000      0.0000000E+00
   4.860000      0.0000000E+00
   4.880000      0.0000000E+00
   4.900000      0.0000000E+00
   4.920000      0.0000000E+00
   4.940000      0.0000000E+00
   4.960000      0.0000000E+00
   4.980000      0.0000000E+00
   5.000000      0.0000000E+00
   5.020000      0.0000000E+00
   5.040000      0.0000000E+00
   5.060000      0.0000000E+00
   5.080000      0.0000000E+00
   5.100000      0.0000000E+00
   5.120000      0.0000000E+00
   5.140000      0.0000000E+00
   5.160000      0.0000000E+00
   5.180000      0.0000000E+00
   5.200000      0.0000000E+00
   5.220000      0.0000000E+00
   5.240000      0.0000000E+00
   5.260000      0.0000000E+00
   5.280000      0.0000000E+00
   5.300000      0.0000000E+00
   5.320000      0.0000000E+00
   5.340000      0.0000000E+00
   5.360000      0.0000000E+00
   5.380000      0.0000000E+00
   5.400000      0.0000000E+00
   5.420000      0.0000000E+00
   5.440000      0.0000000E+00
   5.460000      0.0000000E+00
   5.480000      0.0000000E+00
   5.500000      0.0000000E+00
   5.520000      0.0000000E+00
   5.540000      0.0000000E+00
   5.560000      0.0000000E+00
   5.580000      0.0000000E+00
   5.600000      0.0000000E+00
   5.620000      0.0000000E+00
   5.640000      0.0000000E+00
   5.660000      0.0000000E+00
   5.680000      0.0000000E+00
   5.700000      0.0000000E+00
   5.720000      0.0000000E+00
   5.740000      0.0000000E+00
   5.760000      0.0000000E+00
   5.780000      0.0000000E+00
   5.800000      0.0000000E+00
   5.820000      0.0000000E+00
   5.840000      0.0000000E+00
   5.860000      0.0000000E+00
   5.880000      0.0000000E+00
   5.900000      0.0000000E+00
   5.920000      0.0000000E+00
   5.940000      0.0000000E+00
   5.960000      0.0000000E+00
   5.980000      0.0000000E+00
   6.000000      0.0000000E+00
   6.020000      0.0000000E+00
   6.040000      0.0000000E+00
   6.060000      0.0000000E+00
   6.080000      0.0000000E+00
   6.100000      0.0000000E+00
   6.120000      0.0000000E+00
   6.140000      0.0000000E+00
   6.160000      0.0000000E+00
   6.180000      0.0000000E+00
   6.200000      0.0000000E+00
   6.220000      0.0000000E+00
   6.240000      0.0000000E+00
   6.260000      0.0000000E+00
   6.280000      0.0000000E+00
   6.300000      0.0000000E+00
   6.320000      0.0000000E+00
   6.340000      0.0000000E+00
   6.360000      0.0000000E+00
   6.380000      0.0000000E+00
   6.400000      0.0000000E+00
   6.420000      0.0000000E+00
   6.440000      0.0000000E+00
   6.460000      0.0000000E+00
   6.480000      0.0000000E+00
   6.500000      0.0000000E+00
   6.520000      0.0000000E+00
   6.540000      0.0000000E+00
   6.560000      0.0000000E+00
   6.580000      0.0000000E+00
   6.600000      0.0000000E+00
   6.620000      0.0000000E+00
   6.640000      0.0000000E+00
   6.660000      0.0000000E+00
   6.680000      0.0000000E+00
   6.700000      0.0000000E+00
   6.720000      0.0000000E+00
   6.740000      0.0000000E+00
   6.760000      0.0000000E+00
   6.780000      0.0000000E+00
   6.800000      0.0000000E+00
   6.820000      0.0000000E+00
   6.840000      0.0000000E+00
   6.860000      0.0000000E+00
   6.880000      0.0000000E+00
   6.900000      0.0000000E+00
   6.920000      0.0000000E+00
   6.940000      0.0000000E+00
   6.960000      0.0000000E+00
   6.980000      0.0000000E+00
   7.000000      0.0000000E+00
   7.020000      0.0000000E+00
   7.040000      0.0000000E+00
   7.060000      0.0000000E+00
   7.080000      0.0000000E+00
   7.100000      0.0000000E+00
   7.120000      0.0000000E+00
   7.140000      0.0000000E+00
   7.160000      0.0000000E+00
   7.180000      0.0000000E+00
   7.200000      0.0000000E+00
   7.220000      0.0000000E+00
   7.240000      0.0000000E+00
   7.260000      0.0000000E+00
   7.280000      0.0000000E+00
   7.300000      0.0000000E+00
   7.320000      0.0000000E+00
   7.340000      0.0000000E+00
   7.360000      0.0000000E+00
   7.380000      0.0000000E+00
   7.400000      0.0000000E+00
   7.420000      0.0000000E+00
   7.440000      0.0000000E+00
   7.460000      0.0000000E+00
   7.480000      0.0000000E+00
   7.500000      0.0000000E+00
   7.520000      0.0000000E+00
   7.540000      0.0000000E+00
   7.560000      0.0000000E+00
   7.580000      0.0000000E+00
   7.600000      0.0000000E+00
   7.620000      0.0000000E+00
   7.640000      0.0000000E+00
   7.660000      0.0000000E+00
   7.680000      0.0000000E+00
   7.700000      0.0000000E+00
   7.720000      0.0000000E+00
   7.740000      0.0000000E+00
   7.760000      0.0000000E+00
   7.780000      0.0000000E+00
   7.800000      0.0000000E+00
   7.820000      0.0000000E+00
   7.840000      0.0000000E+00
   7.860000      0.0000000E+00
   7.880000      0.0000000E+00
   7.900000      0.0000000E+00
   7.920000      0.0000000E+00
   7.940000      0.0000000E+00
   7.960000      0.0000000E+00
   7.980000      0.0000000E+00
   8.000000      0.0000000E+00
   8.020000      0.0000000E+00
   8.040000      0.0000000E+00
   8.060000      0.0000000E+00
   8.080000      0.0000000E+00
   8.100000      0.0000000E+00
   8.120000      0.0000000E+00
   8.140000      0.0000000E+00
   8.160000      0.0000000E+00
   8.180000      0.0000000E+00
   8.200000      0.0000000E+00
   8.220000      0.0000000E+00
   8.240000      0.0000000E+00
   8.260000      0.0000000E+00
   8.280000      0.0000000E+00
   8.300000      0.0000000E+00
   8.320000      0.0000000E+00
   8.340000      0.0000000E+00
   8.360000      0.0000000E+00
   8.380000      0.0000000E+00
   8.400000      0.0000000E+00
   8.420000      0.0000000E+00
   8.440000      0.0000000E+00
   8.460000      0.0000000E+00
   8.480000      0.0000000E+00
   8.500000      0.0000000E+00
   8.520000      0.0000000E+00
   8.540000      0.0000000E+00
   8.560000      0.0000000E+00
   8.580000      0.0000000E+00
   8.600000      0.0000000E+00
   8.620000      0.0000000E+00
   8.640000      0.0000000E+00
   8.660000      0.0000000E+00
   8.680000      0.0000000E+00
   8.700000      0.0000000E+00
   8.720000      0.0000000E+00
   8.740000      0.0000000E+00
   8.760000      0.0000000E+00
   8.780000      0.0000000E+00
   8.800000      0.0000000E+00
   8.820000      0.0000000E+00
   8.840000      0.0000000E+00
   8.860000      0.0000000E+00
   8.880000      0.0000000E+00
   8.900000      0.0000000E+00
   8.920000      0.0000000E+00
   8.940000      0.0000000E+00
   8.960000      0.0000000E+00
   8.980000      0.0000000E+00
   9.000000      0.0000000E+00
   9.020000      0.0000000E+00
   9.040000      0.0000000E+00
   9.060000      0.0000000E+00
   9.080000      0.0000000E+00
   9.100000      0.0000000E+00
   9.120000      0.0000000E+00
   9.140000      0.0000000E+00
   9.160000      0.0000000E+00
   9.180000      0.0000000E+00
   9.200000      0.0000000E+00
   9.220000      0.0000000E+00
   9.240000      0.0000000E+00
   9.260000      0.0000000E+00
   9.280000      0.0000000E+00
   9.300000      0.0000000E+00
   9.320000      0.0000000E+00
   9.340000      0.0000000E+00
   9.360000      0.0000000E+00
   9.380000      0.0000000E+00
   9.400000      0.0000000E+00
   9.420000      0.0000000E+00
   9.440000      0.0000000E+00
   9.460000      0.0000000E+00
   9.480000      0.0000000E+00
   9.500000      0.0000000E+00
   9.520000      0.0000000E+00
   9.540000      0.0000000E+00
   9.560000      0.0000000E+00
   9.580000      0.0000000E+00
   9.600000      0.0000000E+00
   9.620000      0.0000000E+00
   9.640000      0.0000000E+00
   9.660000      0.0000000E+00
   9.680000      0.0000000E+00
   9.700000      0.0000000E+00
   9.720000      0.0000000E+00
   9.740000      0.0000000E+00
   9.760000      0.0000000E+00
   9.780000      0.0000000E+00
   9.800000      0.0000000E+00
   9.820000      0.0000000E+00
   9.840000      0.0000000E+00
   9.860000      0.0000000E+00
   9.880000      0.0000000E+00
   9.900000      0.0000000E+00
   9.920000      0.0000000E+00
   9.940000      0.0000000E+00
   9.960000      0.0000000E+00
   9.980000      0.0000000E+00
   10.00000      0.0000000E+00
   10.02000      0.0000000E+00
   10.04000      0.0000000E+00
   10.06000      0.0000000E+00
   10.08000      0.0000000E+00
   10.10000      0.0000000E+00
   10.12000      0.0000000E+00
   10.14000      0.0000000E+00
   10.16000      0.0000000E+00
   10.18000      0.0000000E+00
   10.20000      0.0000000E+00
   10.22000      0.0000000E+00
   10.24000      0.0000000E+00
   10.26000      0.0000000E+00
   10.28000      0.0000000E+00
   10.30000      0.0000000E+00
   10.32000      0.0000000E+00
   10.34000      0.0000000E+00
   10.36000      0.0000000E+00
   10.38000      0.0000000E+00
   10.40000      0.0000000E+00
   10.42000      0.0000000E+00
   10.44000      0.0000000E+00
   10.46000      0.0000000E+00
   10.48000      0.0000000E+00
   10.50000      0.0000000E+00
   10.52000      0.0000000E+00
   10.54000      0.0000000E+00
   10.56000      0.0000000E+00
   10.58000      0.0000000E+00
   10.60000      0.0000000E+00
   10.62000      0.0000000E+00
   10.64000      0.0000000E+00
   10.66000      0.0000000E+00
   10.68000      0.0000000E+00
   10.70000      0.0000000E+00
   10.72000      0.0000000E+00
   10.74000      0.0000000E+00
   10.76000      0.0000000E+00
   10.78000      0.0000000E+00
   10.80000      0.0000000E+00
   10.82000      0.0000000E+00
   10.84000      0.0000000E+00
   10.86000      0.0000000E+00
   10.88000      0.0000000E+00
   10.90000      0.0000000E+00
   10.92000      0.0000000E+00
   10.94000      0.0000000E+00
   10.96000      0.0000000E+00
   10.98000      0.0000000E+00
   11.00000      0.0000000E+00
   11.02000      0.0000000E+00
   11.04000      0.0000000E+00
   11.06000      0.0000000E+00
   11.08000      0.0000000E+00
   11.10000      0.0000000E+00
   11.12000      0.0000000E+00
   11.14000      0.0000000E+00
   11.16000      0.0000000E+00
   11.18000      0.0000000E+00
   11.20000      0.0000000E+00
   11.22000      0.0000000E+00
   11.24000      0.0000000E+00
   11.26000      0.0000000E+00
   11.28000      0.0000000E+00
   11.30000      0.0000000E+00
   11.32000      0.0000000E+00
   11.34000      0.0000000E+00
   11.36000      0.0000000E+00
   11.38000      0.0000000E+00
   11.40000      0.0000000E+00
   11.42000      0.0000000E+00
   11.44000      0.0000000E+00
   11.46000      0.0000000E+00
   11.48000      0.0000000E+00
   11.50000      0.0000000E+00
   11.52000      0.0000000E+00
   11.54000      0.0000000E+00
   11.56000      0.0000000E+00
   11.58000      0.0000000E+00
   11.60000      0.0000000E+00
   11.62000      0.0000000E+00
   11.64000      0.0000000E+00
   11.66000      0.0000000E+00
   11.68000      2.2751479E-38
   11.70000      4.5571386E-38
   11.72000      2.1132906E-38
   11.74000     -4.6774897E-38
   11.76000     -1.1464244E-37
   11.78000     -5.3730379E-38
   11.80000      1.2004823E-37
   11.82000      2.9371584E-37
   11.84000      2.1722505E-37
   11.86000     -1.4023232E-37
   11.88000     -4.9752907E-37
   11.90000     -7.1622387E-37
   11.92000     -5.8785923E-37
   11.94000     -3.8634902E-37
   11.96000     -4.0599271E-37
   11.98000     -9.1605360E-37
   12.00000     -1.7534002E-36
   12.02000     -2.1419056E-36
   12.04000     -8.0319334E-37
   12.06000      2.5659200E-36
   12.08000      5.0428076E-36
   12.10000      3.0612853E-36
   12.12000     -3.8365247E-36
   12.14000     -9.2413278E-36
   12.16000     -5.8439568E-36
   12.18000      6.9178208E-36
   12.20000      1.9345718E-35
   12.22000      1.6474189E-35
   12.24000     -6.5018613E-36
   12.26000     -3.3597887E-35
   12.28000     -3.8677928E-35
   12.30000     -7.9424546E-36
   12.32000      4.3953840E-35
   12.34000      7.5247813E-35
   12.36000      4.8817551E-35
   12.38000     -3.2404901E-35
   12.40000     -1.1419782E-34
   12.42000     -1.2263036E-34
   12.44000     -2.4039182E-35
   12.46000      1.3138178E-34
   12.48000      2.2450305E-34
   12.50000      1.5048287E-34
   12.52000     -8.3642794E-35
   12.54000     -3.2597216E-34
   12.56000     -3.6534867E-34
   12.58000     -9.8657771E-35
   12.60000      3.4088468E-34
   12.62000      6.2306610E-34
   12.64000      4.4911598E-34
   12.66000     -1.7389155E-34
   12.68000     -8.4120635E-34
   12.70000     -9.8147598E-34
   12.72000     -3.0757308E-34
   12.74000      8.4240848E-34
   12.76000      1.6092518E-33
   12.78000      1.2065858E-33
   12.80000     -3.6849473E-34
   12.82000     -2.0960943E-33
   12.84000     -2.5167319E-33
   12.86000     -8.7289878E-34
   12.88000      2.0210206E-33
   12.90000      4.0198546E-33
   12.92000      3.1194953E-33
   12.94000     -7.5757971E-34
   12.96000     -5.1244229E-33
   12.98000     -6.3338472E-33
   13.00000     -2.4064410E-33
   13.02000      4.7579324E-33
   13.04000      9.8908365E-33
   13.06000      7.9450576E-33
   13.08000     -1.4553598E-33
   13.10000     -1.2323599E-32
   13.12000     -1.5657480E-32
   13.14000     -6.3840738E-33
   13.16000      1.1093639E-32
   13.18000      2.3981204E-32
   13.20000      1.9786357E-32
   13.22000     -2.7439109E-33
   13.24000     -2.9312694E-32
   13.26000     -3.8042485E-32
   13.28000     -1.6308585E-32
   13.30000      2.5673916E-32
   13.32000      5.7248268E-32
   13.34000      4.8147288E-32
   13.36000     -5.1401683E-33
   13.38000     -6.8822044E-32
   13.40000     -9.0680491E-32
   13.42000     -4.0208413E-32
   13.44000      5.8923606E-32
   13.46000      1.3439040E-31
   13.48000      1.1445231E-31
   13.50000     -9.7529605E-33
   13.52000     -1.5932033E-31
   13.54000     -2.1192952E-31
   13.56000     -9.5894190E-32
   13.58000      1.3409555E-31
   13.60000      3.1014626E-31
   13.62000      2.6587298E-31
   13.64000     -1.9360335E-32
   13.66000     -3.6365032E-31
   13.68000     -4.8577097E-31
   13.70000     -2.2172360E-31
   13.72000      3.0263499E-31
   13.74000      7.0383124E-31
   13.76000      6.0405044E-31
   13.78000     -4.1399418E-32
   13.80000     -8.1861417E-31
   13.82000     -1.0927532E-30
   13.84000     -4.9806194E-31
   13.86000      6.7739926E-31
   13.88000      1.5716193E-30
   13.90000      1.3438517E-30
   13.92000     -9.5975864E-32
   13.94000     -1.8183553E-30
   13.96000     -2.4150697E-30
   13.98000     -1.0895299E-30
   14.00000      1.5036371E-30
   14.02000      3.4562430E-30
   14.04000      2.9323662E-30
   14.06000     -2.3580671E-31
   14.08000     -3.9878715E-30
   14.10000     -5.2509634E-30
   14.12000     -2.3273253E-30
   14.14000      3.3085626E-30
   14.16000      7.4937611E-30
   14.18000      6.2878239E-30
   14.20000     -5.9321327E-31
   14.22000     -8.6403221E-30
   14.24000     -1.1249012E-29
   14.26000     -4.8696578E-30
   14.28000      7.2119689E-30
   14.30000      1.6037545E-29
   14.32000      1.3278977E-29
   14.34000     -1.4828206E-30
   14.36000     -1.8504422E-29
   14.38000     -2.3784753E-29
   14.40000     -1.0021230E-29
   14.42000      1.5556151E-29
   14.44000      3.3916231E-29
   14.46000      2.7690611E-29
   14.48000     -3.6042037E-30
   14.50000     -3.9180195E-29
   14.52000     -4.9720743E-29
   14.54000     -2.0387759E-29
   14.56000      3.3144842E-29
   14.58000      7.0938073E-29
   14.60000      5.7171236E-29
   14.62000     -8.3983711E-30
   14.64000     -8.1996209E-29
   14.66000     -1.0291607E-28
   14.68000     -4.1252225E-29
   14.70000      6.9600057E-29
   14.72000      1.4681328E-28
   14.74000      1.1717528E-28
   14.76000     -1.8562823E-29
   14.78000     -1.6949180E-28
   14.80000     -2.1117942E-28
   14.82000     -8.3560010E-29
   14.84000      1.4363150E-28
   14.86000      3.0065832E-28
   14.88000      2.3895733E-28
   14.90000     -3.8445001E-29
   14.92000     -3.4558133E-28
   14.94000     -4.2985139E-28
   14.96000     -1.7049166E-28
   14.98000      2.9024824E-28
   15.00000      6.0885016E-28
   15.02000      4.8562261E-28
   15.04000     -7.3217898E-29
   15.06000     -6.9361096E-28
   15.08000     -8.6776404E-28
   15.10000     -3.5181037E-28
   15.12000      5.7188179E-28
   15.14000      1.2175185E-27
   15.16000      9.8384292E-28
   15.18000     -1.2364741E-28
   15.20000     -1.3668182E-27
   15.22000     -1.7356261E-27
   15.24000     -7.3472590E-28
   15.26000      1.0929773E-27
   15.28000      2.3992842E-27
   15.30000      1.9851966E-27
   15.32000     -1.6810565E-28
   15.34000     -2.6357320E-27
   15.36000     -3.4328538E-27
   15.38000     -1.5484401E-27
   15.40000      2.0125329E-27
   15.42000      4.6462840E-27
   15.44000      3.9803079E-27
   15.46000     -1.1326251E-28
   15.48000     -4.9531270E-27
   15.50000     -6.6949762E-27
   15.52000     -3.2726288E-27
   15.54000      3.5375400E-27
   15.56000      8.8102413E-27
   15.58000      7.9004628E-27
   15.60000      3.2307976E-28
   15.62000     -9.0247405E-27
   15.64000     -1.2826950E-26
   15.66000     -6.8795342E-27
   15.68000      5.8555966E-27
   15.70000      1.6287121E-26
   15.72000      1.5451460E-26
   15.74000      1.8645800E-27
   15.76000     -1.5839581E-26
   15.78000     -2.4033557E-26
   15.80000     -1.4259661E-26
   15.82000      8.9169894E-27
   15.84000      2.9195915E-26
   15.86000      2.9609909E-26
   15.88000      6.1681285E-27
   15.90000     -2.6541333E-26
   15.92000     -4.3792763E-26
   15.94000     -2.8890425E-26
   15.96000      1.1913494E-26
   15.98000      5.0394065E-26
   16.00000      5.5229415E-26
   16.02000      1.6665799E-26
   16.04000     -4.1910799E-26
   16.06000     -7.7062318E-26
   16.08000     -5.6714810E-26
   16.10000      1.2244969E-26
   16.12000      8.2974590E-26
   16.14000      9.9482694E-26
   16.16000      3.9788307E-26
   16.18000     -6.1068379E-26
   16.20000     -1.2976931E-25
   16.22000     -1.0689365E-25
   16.24000      3.7853683E-27
   16.26000      1.2853502E-25
   16.28000      1.7130738E-25
   16.30000      8.6213585E-26
   16.32000     -7.8881505E-26
   16.34000     -2.0635910E-25
   16.36000     -1.9124309E-25
   16.38000     -2.5306960E-26
   16.40000      1.8309693E-25
   16.42000      2.7787887E-25
   16.44000      1.7059719E-25
   16.46000     -8.1913092E-26
   16.48000     -3.0325130E-25
   16.50000     -3.1938678E-25
   16.52000     -9.3520237E-26
   16.54000      2.2953444E-25
   16.56000      4.1433041E-25
   16.58000      3.0566425E-25
   16.60000     -4.4275413E-26
   16.62000     -3.9512384E-25
   16.64000     -4.8345676E-25
   16.66000     -2.2047139E-25
   16.68000      2.2647144E-25
   16.70000      5.4025647E-25
   16.72000      4.8128414E-25
   16.74000      7.0902374E-26
   16.76000     -4.1077987E-25
   16.78000     -6.2055087E-25
   16.80000     -4.0169460E-25
   16.82000      9.8497505E-26
   16.84000      5.3380655E-25
   16.86000      6.0912906E-25
   16.88000      2.8729584E-25
   16.90000     -1.9987101E-25
   16.92000     -5.3397556E-25