  -2.400000      0.0000000E+00
  -2.380000      0.0000000E+00
  -2.360000     -5.3716067E-09
  -2.340000     -1.9491376E-08
  -2.320000     -4.5847191E-08
  -2.300000     -9.8148114E-08
  -2.280000     -1.8844152E-07
  -2.260000     -2.8803174E-07
  -2.240000     -3.1763463E-07
  -2.220000     -2.2109506E-07
  -2.200000     -7.0031760E-08
  -2.180000     -5.5003927E-08
  -2.160000     -3.0165964E-07
  -2.140000     -6.7234186E-07
  -2.120000     -8.1479220E-07
  -2.100000     -5.0463495E-07
  -2.080000      3.4879317E-08
  -2.060000      2.3779084E-07
  -2.040000     -2.6595342E-07
  -2.020000     -1.1901324E-06
  -2.000000     -1.7664229E-06
  -1.980000     -1.5060334E-06
  -1.960000     -8.1960184E-07
  -1.940000     -7.8313667E-07
  -1.920000     -2.1589867E-06
  -1.900000     -4.6028863E-06
  -1.880000     -6.8923255E-06
  -1.860000     -8.0014224E-06
  -1.840000     -7.9535630E-06
  -1.820000     -7.5989283E-06
  -1.800000     -7.6161928E-06
  -1.780000     -7.8856892E-06
  -1.760000     -7.9494166E-06
  -1.740000     -7.9901674E-06
  -1.720000     -9.0737840E-06
  -1.700000     -1.2170543E-05
  -1.680000     -1.6930226E-05
  -1.660000     -2.1669097E-05
  -1.640000     -2.4843630E-05
  -1.620000     -2.6615717E-05
  -1.600000     -2.8829123E-05
  -1.580000     -3.3291330E-05
  -1.560000     -4.0091836E-05
  -1.540000     -4.7748537E-05
  -1.520000     -5.5057200E-05
  -1.500000     -6.2631021E-05
  -1.480000     -7.2370967E-05
  -1.460000     -8.5355154E-05
  -1.440000     -1.0047014E-04
  -1.420000     -1.1542855E-04
  -1.400000     -1.2922793E-04
  -1.380000     -1.4340134E-04
  -1.360000     -1.6059047E-04
  -1.340000     -1.8189878E-04
  -1.320000     -2.0596170E-04
  -1.300000     -2.3090384E-04
  -1.280000     -2.5709660E-04
  -1.260000     -2.8748604E-04
  -1.240000     -3.2474429E-04
  -1.220000     -3.6814966E-04
  -1.200000     -4.1385990E-04
  -1.180000     -4.5891234E-04
  -1.160000     -5.0511246E-04
  -1.140000     -5.5851904E-04
  -1.120000     -6.2444620E-04
  -1.100000     -7.0271431E-04
  -1.080000     -7.8815588E-04
  -1.060000     -8.7636797E-04
  -1.040000     -9.6921046E-04
  -1.020000     -1.0743256E-03
  -1.000000     -1.1986742E-03
 -0.9800000     -1.3422762E-03
 -0.9600000     -1.4986228E-03
 -0.9400000     -1.6618799E-03
 -0.9200000     -1.8340596E-03
 -0.9000000     -2.0248441E-03
 -0.8800000     -2.2436387E-03
 -0.8600000     -2.4912243E-03
 -0.8400000     -2.7593414E-03
 -0.8200000     -3.0392513E-03
 -0.8000000     -3.3315332E-03
 -0.7800000     -3.6475724E-03
 -0.7600000     -4.0005827E-03
 -0.7400000     -4.3938537E-03
 -0.7200000     -4.8170015E-03
 -0.7000000     -5.2540675E-03
 -0.6800000     -5.6965230E-03
 -0.6600000     -6.1494648E-03
 -0.6400000     -6.6251168E-03
 -0.6200000     -7.1291006E-03
 -0.6000000     -7.6515088E-03
 -0.5800000     -8.1706597E-03
 -0.5600000     -8.6660972E-03
 -0.5400000     -9.1291005E-03
 -0.5200000     -9.5610451E-03
 -0.5000000     -9.9607371E-03
 -0.4800000     -1.0311619E-02
 -0.4600000     -1.0579947E-02
 -0.4400000     -1.0725440E-02
 -0.4200000     -1.0714927E-02
 -0.4000000     -1.0526967E-02
 -0.3800000     -1.0143407E-02
 -0.3600000     -9.5352763E-03
 -0.3400000     -8.6552650E-03
 -0.3200000     -7.4430127E-03
 -0.3000000     -5.8381073E-03
 -0.2800000     -3.7889807E-03
 -0.2600000     -1.2500396E-03
 -0.2400000      1.8299533E-03
 -0.2200000      5.5172206E-03
 -0.2000000      9.8912725E-03
 -0.1800000      1.5033307E-02
 -0.1600000      2.1014849E-02
 -0.1400000      2.7896229E-02
 -0.1200000      3.5735361E-02
 -0.1000000      4.4597831E-02
 -7.9999998E-02  5.4558244E-02
 -5.9999999E-02  6.5690622E-02
 -3.9999999E-02  7.8055613E-02
 -2.0000000E-02  9.1694772E-02
  0.0000000E+00  0.1066353    
  2.0000000E-02  0.1228994    
  3.9999999E-02  0.1405073    
  5.9999999E-02  0.1594708    
  7.9999998E-02  0.1797806    
  0.1000000      0.2013980    
  0.1200000      0.2242565    
  0.1400000      0.2482701    
  0.1600000      0.2733393    
  0.1800000      0.2993487    
  0.2000000      0.3261573    
  0.2200000      0.3535894    
  0.2400000      0.3814338    
  0.2600000      0.4094509    
  0.2800000      0.4373823    
  0.3000000      0.4649540    
  0.3200000      0.4918729    
  0.3400000      0.5178202    
  0.3600000      0.5424499    
  0.3800000      0.5653942    
  0.4000000      0.5862756    
  0.4200000      0.6047159    
  0.4400000      0.6203401    
  0.4600000      0.6327746    
  0.4800000      0.6416467    
  0.5000000      0.6465900    
  0.5200000      0.6472544    
  0.5400000      0.6433188    
  0.5600000      0.6344984    
  0.5800000      0.6205472    
  0.6000000      0.6012571    
  0.6200000      0.5764599    
  0.6400000      0.5460360    
  0.6600000      0.5099241    
  0.6800000      0.4681295    
  0.7000000      0.4207267    
  0.7200000      0.3678556    
  0.7400000      0.3097181    
  0.7600000      0.2465784    
  0.7800000      0.1787668    
  0.8000000      0.1066838    
  0.8200000      3.0798554E-02
  0.8400000     -4.8358109E-02
  0.8600000     -0.1302036    
  0.8800000     -0.2141116    
  0.9000000     -0.2994161    
  0.9200000     -0.3854142    
  0.9400000     -0.4713698    
  0.9600000     -0.5565245    
  0.9800000     -0.6401109    
   1.000000     -0.7213662    
   1.020000     -0.7995430    
   1.040000     -0.8739150    
   1.060000     -0.9437822    
   1.080000      -1.008478    
   1.100000      -1.067380    
   1.120000      -1.119924    
   1.140000      -1.165612    
   1.160000      -1.204021    
   1.180000      -1.234804    
   1.200000      -1.257689    
   1.220000      -1.272483    
   1.240000      -1.279076    
   1.260000      -1.277444    
   1.280000      -1.267657    
   1.300000      -1.249870    
   1.320000      -1.224320    
   1.340000      -1.191316    
   1.360000      -1.151236    
   1.380000      -1.104526    
   1.400000      -1.051692    
   1.420000     -0.9932976    
   1.440000     -0.9299540    
   1.460000     -0.8623044    
   1.480000     -0.7910149    
   1.500000     -0.7167670    
   1.520000     -0.6402526    
   1.540000     -0.5621692    
   1.560000     -0.4832104    
   1.580000     -0.4040549    
   1.600000     -0.3253548    
   1.620000     -0.2477280    
   1.640000     -0.1717550    
   1.660000     -9.7977504E-02
   1.680000     -2.6895108E-02
   1.700000      4.1040204E-02
   1.720000      0.1054311    
   1.740000      0.1659394    
   1.760000      0.2222850    
   1.780000      0.2742429    
   1.800000      0.3216393    
   1.820000      0.3643520    
   1.840000      0.4023122    
   1.860000      0.4355061    
   1.880000      0.4639711    
   1.900000      0.4877892    
   1.920000      0.5070786    
   1.940000      0.5219896    
   1.960000      0.5327041    
   1.980000      0.5394353    
   2.000000      0.5424247    
   2.020000      0.5419339    
   2.040000      0.5382363    
   2.060000      0.5316107    
   2.080000      0.5223399    
   2.100000      0.5107118    
   2.120000      0.4970188    
   2.140000      0.4815517    
   2.160000      0.4645926    
   2.180000      0.4464092    
   2.200000      0.4272533    
   2.220000      0.4073637    
   2.240000      0.3869681    
   2.260000      0.3662817    
   2.280000      0.3455027    
   2.300000      0.3248074    
   2.320000      0.3043488    
   2.340000      0.2842598    
   2.360000      0.2646571    
   2.380000      0.2456441    
   2.400000      0.2273095    
   2.420000      0.2097250    
   2.440000      0.1929436    
   2.460000      0.1770010    
   2.480000      0.1619198    
   2.500000      0.1477130    
   2.520000      0.1343859    
   2.540000      0.1219353    
   2.560000      0.1103485    
   2.580000      9.9603578E-02
   2.600000      8.9671336E-02
   2.620000      8.0518946E-02
   2.640000      7.2112255E-02
   2.660000      6.4416476E-02
   2.680000      5.7395391E-02
   2.700000      5.1010516E-02
   2.720000      4.5221496E-02
   2.740000      3.9987728E-02
   2.760000      3.5270162E-02
   2.780000      3.1032110E-02
   2.800000      2.7238749E-02
   2.820000      2.3856230E-02
   2.840000      2.0851357E-02
   2.860000      1.8192200E-02
   2.880000      1.5848920E-02
   2.900000      1.3793950E-02
   2.920000      1.2001382E-02
   2.940000      1.0446264E-02
   2.960000      9.1045713E-03
   2.980000      7.9538375E-03
   3.000000      6.9736396E-03
   3.020000      6.1452109E-03
   3.040000      5.4503712E-03
   3.060000      4.8708087E-03
   3.080000      4.3884786E-03
   3.100000      3.9868150E-03
   3.120000      3.6516071E-03
   3.140000      3.3706473E-03
   3.160000      3.1325228E-03
   3.180000      2.9258176E-03
   3.200000      2.7396309E-03
   3.220000      2.5649543E-03
   3.240000      2.3955193E-03
   3.260000      2.2271720E-03
   3.280000      2.0563167E-03
   3.300000      1.8789824E-03
   3.320000      1.6915358E-03
   3.340000      1.4924142E-03
   3.360000      1.2831263E-03
   3.380000      1.0673282E-03
   3.400000      8.4859552E-04
   3.420000      6.2883453E-04
   3.440000      4.0878076E-04
   3.460000      1.9009474E-04
   3.480000     -2.2999749E-05
   3.500000     -2.2427089E-04
   3.520000     -4.0797738E-04
   3.540000     -5.7122851E-04
   3.560000     -7.1416551E-04
   3.580000     -8.3784392E-04
   3.600000     -9.4176986E-04
   3.620000     -1.0233612E-03
   3.640000     -1.0798728E-03
   3.660000     -1.1110859E-03
   3.680000     -1.1203439E-03
   3.700000     -1.1129660E-03
   3.720000     -1.0933784E-03
   3.740000     -1.0634116E-03
   3.760000     -1.0231353E-03
   3.780000     -9.7333390E-04
   3.800000     -9.1729697E-04
   3.820000     -8.6027046E-04
   3.840000     -8.0703979E-04
   3.860000     -7.5976818E-04
   3.880000     -7.1791932E-04
   3.900000     -6.8017503E-04
   3.920000     -6.4648484E-04
   3.940000     -6.1836140E-04
   3.960000     -5.9722667E-04
   3.980000     -5.8243278E-04
   4.000000     -5.7084754E-04
   4.020000     -5.5841292E-04
   4.040000     -5.4226379E-04
   4.060000     -5.2152434E-04
   4.080000     -4.9618329E-04
   4.100000     -4.6524373E-04
   4.120000     -4.2598107E-04
   4.140000     -3.7507480E-04
   4.160000     -3.1063755E-04
   4.180000     -2.3337280E-04
   4.200000     -1.4591764E-04
   4.220000     -5.1049366E-05
   4.240000      4.9645605E-05
   4.260000      1.5558433E-04
   4.280000      2.6582630E-04
   4.300000      3.7784368E-04
   4.320000      4.8746355E-04
   4.340000      5.8992399E-04
   4.360000      6.8110327E-04
   4.380000      7.5802620E-04
   4.400000      8.1851095E-04
   4.420000      8.6051825E-04
   4.440000      8.8183553E-04
   4.460000      8.8029145E-04
   4.480000      8.5424958E-04
   4.500000      8.0304366E-04
   4.520000      7.2720292E-04
   4.540000      6.2847044E-04
   4.560000      5.0961721E-04
   4.580000      3.7403012E-04
   4.600000      2.2517469E-04
   4.620000      6.6222819E-05
   4.640000     -9.9863988E-05
   4.660000     -2.6982152E-04
   4.680000     -4.3958030E-04
   4.700000     -6.0431781E-04
   4.720000     -7.5921766E-04
   4.740000     -9.0047345E-04
   4.760000     -1.0257824E-03
   4.780000     -1.1339234E-03
   4.800000     -1.2237690E-03
   4.820000     -1.2936094E-03
   4.840000     -1.3414647E-03
   4.860000     -1.3662332E-03
   4.880000     -1.3687457E-03
   4.900000     -1.3517695E-03
   4.920000     -1.3188296E-03
   4.940000     -1.2727294E-03
   4.960000     -1.2149839E-03
   4.980000     -1.1466413E-03
   5.000000     -1.0697490E-03
   5.020000     -9.8806655E-04
   5.040000     -9.0620347E-04
   5.060000     -8.2774181E-04
   5.080000     -7.5390015E-04
   5.100000     -6.8394019E-04
   5.120000     -6.1702117E-04
   5.140000     -5.5386935E-04
   5.160000     -4.9670291E-04
   5.180000     -4.4738219E-04
   5.200000     -4.0540902E-04
   5.220000     -3.6764823E-04
   5.240000     -3.3016142E-04
   5.260000     -2.9061700E-04
   5.280000     -2.4914410E-04
   5.300000     -2.0685505E-04
   5.320000     -1.6339365E-04
   5.340000     -1.1582233E-04
   5.360000     -6.0008828E-05
   5.380000      6.5905706E-06
   5.400000      8.3173960E-05
   5.420000      1.6642474E-04
   5.440000      2.5319765E-04
   5.460000      3.4266702E-04
   5.480000      4.3602812E-04
   5.500000      5.3404138E-04
   5.520000      6.3464226E-04
   5.540000      7.3278154E-04
   5.560000      8.2268351E-04
   5.580000      9.0059196E-04
   5.600000      9.6568977E-04
   5.620000      1.0185209E-03
   5.640000      1.0584244E-03
   5.660000      1.0822978E-03
   5.680000      1.0857877E-03
   5.700000      1.0658808E-03
   5.720000      1.0227025E-03
   5.740000      9.5906912E-04
   5.760000      8.7827916E-04
   5.780000      7.8206905E-04
   5.800000      6.7041157E-04
   5.820000      5.4320373E-04
   5.840000      4.0230373E-04
   5.860000      2.5215966E-04
   5.880000      9.8519915E-05
   5.900000     -5.3689429E-05
   5.920000     -2.0163041E-04
   5.940000     -3.4408210E-04
   5.960000     -4.7981658E-04
   5.980000     -6.0627959E-04
   6.000000     -7.1966182E-04
   6.020000     -8.1623468E-04
   6.040000     -8.9382951E-04
   6.060000     -9.5233135E-04
   6.080000     -9.9293701E-04
   6.100000     -1.0168924E-03
   6.120000     -1.0247191E-03
   6.140000     -1.0164193E-03
   6.160000     -9.9234877E-04
   6.180000     -9.5399562E-04
   6.200000     -9.0407877E-04
   6.220000     -8.4593281E-04
   6.240000     -7.8262389E-04
   6.260000     -7.1634882E-04
   6.280000     -6.4842094E-04
   6.300000     -5.7975622E-04
   6.320000     -5.1147171E-04
   6.340000     -4.4514870E-04
   6.360000     -3.8253106E-04
   6.380000     -3.2482771E-04
   6.400000     -2.7212643E-04
   6.420000     -2.2342477E-04
   6.440000     -1.7735940E-04
   6.460000     -1.3312922E-04
   6.480000     -9.0850335E-05
   6.500000     -5.0958726E-05
   6.520000     -1.3076879E-05
   6.540000      2.4673403E-05
   6.560000      6.5164561E-05
   6.580000      1.1077213E-04
   6.600000      1.6202324E-04
   6.620000      2.1754121E-04
   6.640000      2.7544357E-04
   6.660000      3.3508669E-04
   6.680000      3.9763129E-04
   6.700000      4.6479749E-04
   6.720000      5.3672952E-04
   6.740000      6.1078224E-04
   6.760000      6.8241230E-04
   6.780000      7.4761588E-04
   6.800000      8.0494763E-04
   6.820000      8.5535861E-04
   6.840000      8.9987984E-04
   6.860000      9.3709381E-04
   6.880000      9.6268690E-04
   6.900000      9.7170169E-04
   6.920000      9.6174359E-04
   6.940000      9.3439600E-04
   6.960000      8.9349435E-04
   6.980000      8.4161863E-04
   7.000000      7.7785045E-04
   7.020000      6.9888518E-04
   7.040000      6.0267729E-04
   7.060000      4.9144623E-04
   7.080000      3.7127544E-04
   7.100000      2.4848638E-04
   7.120000      1.2590720E-04
   7.140000      2.3718646E-06
   7.160000     -1.2405311E-04
   7.180000     -2.5202506E-04
   7.200000     -3.7582041E-04
   7.220000     -4.8832642E-04
   7.240000     -5.8553013E-04
   7.260000     -6.6845387E-04
   7.280000     -7.4074505E-04
   7.300000     -8.0410240E-04
   7.320000     -8.5574843E-04
   7.340000     -8.9032698E-04
   7.360000     -9.0455089E-04
   7.380000     -9.0036978E-04
   7.400000     -8.8374788E-04
   7.420000     -8.6011580E-04
   7.440000     -8.3055760E-04
   7.460000     -7.9207780E-04
   7.480000     -7.4157445E-04
   7.500000     -6.7984906E-04
   7.520000     -6.1207410E-04
   7.540000     -5.4441567E-04
   7.560000     -4.7992103E-04
   7.580000     -4.1727323E-04
   7.600000     -3.5330505E-04
   7.620000     -2.8682625E-04
   7.640000     -2.2033528E-04
   7.660000     -1.5825819E-04
   7.680000     -1.0345926E-04
   7.700000     -5.5123131E-05
   7.720000     -9.6990416E-06
   7.740000      3.6127316E-05
   7.760000      8.3064311E-05
   7.780000      1.2931091E-04
   7.800000      1.7274624E-04
   7.820000      2.1315509E-04
   7.840000      2.5262946E-04
   7.860000      2.9398283E-04
   7.880000      3.3865101E-04
   7.900000      3.8581627E-04
   7.920000      4.3333040E-04
   7.940000      4.7951576E-04
   7.960000      5.2430760E-04
   7.980000      5.6885835E-04
   8.000000      6.1401987E-04
   8.020000      6.5899268E-04
   8.040000      7.0123666E-04
   8.060000      7.3769724E-04
   8.080000      7.6636183E-04
   8.100000      7.8693178E-04
   8.120000      8.0012280E-04
   8.140000      8.0620142E-04
   8.160000      8.0395851E-04
   8.180000      7.9096190E-04
   8.200000      7.6491624E-04
   8.220000      7.2509266E-04
   8.240000      6.7274680E-04
   8.260000      6.1022543E-04
   8.280000      5.3945469E-04
   8.300000      4.6094504E-04
   8.320000      3.7404150E-04
   8.340000      2.7821821E-04
   8.360000      1.7445284E-04
   8.380000      6.5655680E-05
   8.400000     -4.4200249E-05
   8.420000     -1.5166540E-04
   8.440000     -2.5498652E-04
   8.460000     -3.5398887E-04
   8.480000     -4.4872396E-04
   8.500000     -5.3791219E-04
   8.520000     -6.1847025E-04
   8.540000     -6.8665220E-04
   8.560000     -7.4004004E-04
   8.580000     -7.7881274E-04
   8.600000     -8.0516614E-04
   8.620000     -8.2123175E-04
   8.640000     -8.2716660E-04
   8.660000     -8.2107040E-04
   8.680000     -8.0089050E-04
   8.700000     -7.6672295E-04
   8.720000     -7.2147348E-04
   8.740000     -6.6921226E-04
   8.760000     -6.1260769E-04
   8.780000     -5.5170926E-04
   8.800000     -4.8518734E-04
   8.820000     -4.1291153E-04
   8.840000     -3.3748004E-04
   8.860000     -2.6321423E-04
   8.880000     -1.9344586E-04
   8.900000     -1.2852985E-04
   8.920000     -6.6404878E-05
   8.940000     -5.2091868E-06
   8.960000      5.4439653E-05
   8.980000      1.0960895E-04
   9.000000      1.5753512E-04
   9.020000      1.9816404E-04
   9.040000      2.3440688E-04
   9.060000      2.6983599E-04
   9.080000      3.0586397E-04
   9.100000      3.4091208E-04
   9.120000      3.7226838E-04
   9.140000      3.9892161E-04
   9.160000      4.2281023E-04
   9.180000      4.4738365E-04
   9.200000      4.7478400E-04
   9.220000      5.0415203E-04
   9.240000      5.3250801E-04
   9.260000      5.5734941E-04
   9.280000      5.7862699E-04
   9.300000      5.9838250E-04
   9.320000      6.1844528E-04
   9.340000      6.3828111E-04
   9.360000      6.5488473E-04
   9.380000      6.6475745E-04
   9.400000      6.6618825E-04
   9.420000      6.5986579E-04
   9.440000      6.4739049E-04
   9.460000      6.2911678E-04
   9.480000      6.0328643E-04
   9.500000      5.6719856E-04
   9.520000      5.1933597E-04
   9.540000      4.6056663E-04
   9.560000      3.9342427E-04
   9.580000      3.2019976E-04
   9.600000      2.4157588E-04
   9.620000      1.5696614E-04
   9.640000      6.6148037E-05
   9.660000     -2.9341580E-05
   9.680000     -1.2628986E-04
   9.700000     -2.2124058E-04
   9.720000     -3.1197729E-04
   9.740000     -3.9781089E-04
   9.760000     -4.7856488E-04
   9.780000     -5.5328629E-04
   9.800000     -6.1984215E-04
   9.820000     -6.7567138E-04
   9.840000     -7.1893813E-04
   9.860000     -7.4908993E-04
   9.880000     -7.6647429E-04
   9.900000     -7.7151763E-04
   9.920000     -7.6424784E-04
   9.940000     -7.4449612E-04
   9.960000     -7.1246520E-04
   9.980000     -6.6910661E-04
   10.00000     -6.1603449E-04
   10.02000     -5.5514748E-04
   10.04000     -4.8829470E-04
   10.06000     -4.1715839E-04
   10.08000     -3.4328303E-04
   10.10000     -2.6812448E-04
   10.12000     -1.9308557E-04
   10.14000     -1.1956308E-04
   10.16000     -4.8964757E-05
   10.18000      1.7404451E-05
   10.20000      7.8591540E-05
   10.22000      1.3419503E-04
   10.24000      1.8428352E-04
   10.26000      2.2902637E-04
   10.28000      2.6834334E-04
   10.30000      3.0193798E-04
   10.32000      3.2975213E-04
   10.34000      3.5244325E-04
   10.36000      3.7138836E-04
   10.38000      3.8811186E-04
   10.40000      4.0358317E-04
   10.42000      4.1799890E-04
   10.44000      4.3125311E-04
   10.46000      4.4366124E-04
   10.48000      4.5624253E-04
   10.50000      4.7024238E-04
   10.52000      4.8626281E-04
   10.54000      5.0374167E-04
   10.56000      5.2123668E-04
   10.58000      5.3728739E-04
   10.60000      5.5114634E-04
   10.62000      5.6279899E-04
   10.64000      5.7229394E-04
   10.66000      5.7896436E-04
   10.68000      5.8118405E-04
   10.70000      5.7685893E-04
   10.72000      5.6428544E-04
   10.74000      5.4275128E-04
   10.76000      5.1247462E-04
   10.78000      4.7398265E-04
   10.80000      4.2743911E-04
   10.82000      3.7245627E-04
   10.84000      3.0855049E-04
   10.86000      2.3589726E-04
   10.88000      1.5578915E-04
   10.90000      7.0409078E-05
   10.92000     -1.7929649E-05
   10.94000     -1.0747874E-04
   10.96000     -1.9712833E-04
   10.98000     -2.8582747E-04
   11.00000     -3.7190254E-04
   11.02000     -4.5293113E-04
   11.04000     -5.2633183E-04
   11.06000     -5.9016194E-04
   11.08000     -6.4340583E-04
   11.10000     -6.8551477E-04
   11.12000     -7.1569392E-04
   11.14000     -7.3270145E-04
   11.16000     -7.3544140E-04
   11.18000     -7.2382763E-04
   11.20000     -6.9907022E-04
   11.22000     -6.6304149E-04
   11.24000     -6.1726576E-04
   11.26000     -5.6247233E-04
   11.28000     -4.9913814E-04
   11.30000     -4.2849276E-04
   11.32000     -3.5298054E-04
   11.34000     -2.7566490E-04
   11.36000     -1.9905664E-04
   11.38000     -1.2440057E-04
   11.40000     -5.2026953E-05
   11.42000      1.7620972E-05
   11.44000      8.3274768E-05
   11.46000      1.4308906E-04
   11.48000      1.9556753E-04
   11.50000      2.4028216E-04
   11.52000      2.7777406E-04
   11.54000      3.0884254E-04
   11.56000      3.3396628E-04
   11.58000      3.5336101E-04
   11.60000      3.6747934E-04
   11.62000      3.7733626E-04
   11.64000      3.8429996E-04
   11.66000      3.8959194E-04
   11.68000      3.9403263E-04
   11.70000      3.9825815E-04
   11.72000      4.0308453E-04
   11.74000      4.0952169E-04
   11.76000      4.1832626E-04
   11.78000      4.2950799E-04
   11.80000      4.4230418E-04
   11.82000      4.5568685E-04
   11.84000      4.6893570E-04
   11.86000      4.8174348E-04
   11.88000      4.9378409E-04
   11.90000      5.0419586E-04
   11.92000      5.1149365E-04
   11.94000      5.1398849E-04
   11.96000      5.1032449E-04
   11.98000      4.9968628E-04
   12.00000      4.8160538E-04
   12.02000      4.5567163E-04
   12.04000      4.2147009E-04
   12.06000      3.7875352E-04
   12.08000      3.2760287E-04
   12.10000      2.6839037E-04
   12.12000      2.0163982E-04
   12.14000      1.2802577E-04
   12.16000      4.8590126E-05
   12.18000     -3.5033863E-05
   12.20000     -1.2067911E-04
   12.22000     -2.0602785E-04
   12.24000     -2.8904231E-04
   12.26000     -3.6810077E-04
   12.28000     -4.4176765E-04
   12.30000     -5.0846220E-04
   12.32000     -5.6636764E-04
   12.34000     -6.1368197E-04
   12.36000     -6.4900896E-04
   12.38000     -6.7160261E-04
   12.40000     -6.8134343E-04
   12.42000     -6.7854306E-04
   12.44000     -6.6374004E-04
   12.46000     -6.3756824E-04
   12.48000     -6.0070219E-04
   12.50000     -5.5389554E-04
   12.52000     -4.9814221E-04
   12.54000     -4.3490561E-04
   12.56000     -3.6622243E-04
   12.58000     -2.9448251E-04
   12.60000     -2.2192088E-04
   12.62000     -1.5015756E-04
   12.64000     -8.0172977E-05
   12.66000     -1.2774199E-05
   12.68000      5.0853672E-05
   12.70000      1.0905749E-04
   12.72000      1.6025829E-04
   12.74000      2.0370446E-04
   12.76000      2.3976430E-04
   12.78000      2.6945808E-04
   12.80000      2.9361679E-04
   12.82000      3.1241614E-04
   12.84000      3.2570589E-04
   12.86000      3.3381238E-04
   12.88000      3.3803156E-04
   12.90000      3.4029700E-04
   12.92000      3.4227324E-04
   12.94000      3.4467602E-04
   12.96000      3.4742497E-04
   12.98000      3.5046058E-04
   13.00000      3.5442578E-04
   13.02000      3.6052163E-04
   13.04000      3.6961664E-04
   13.06000      3.8140872E-04
   13.08000      3.9443336E-04
   13.10000      4.0696387E-04
   13.12000      4.1803243E-04
   13.14000      4.2766688E-04
   13.16000      4.3612681E-04
   13.18000      4.4282732E-04
   13.20000      4.4594222E-04
   13.22000      4.4309691E-04
   13.24000      4.3259983E-04
   13.26000      4.1417574E-04
   13.28000      3.8859100E-04
   13.30000      3.5652722E-04
   13.32000      3.1771621E-04
   13.34000      2.7111196E-04
   13.36000      2.1595786E-04
   13.38000      1.5281710E-04
   13.40000      8.3670173E-05
   13.42000      1.1001156E-05
   13.44000     -6.3328087E-05
   13.46000     -1.3845811E-04
   13.48000     -2.1389314E-04
   13.50000     -2.8847961E-04
   13.52000     -3.5996156E-04
   13.54000     -4.2553787E-04
   13.56000     -4.8294477E-04
   13.58000     -5.3113356E-04
   13.60000     -5.6999776E-04
   13.62000     -5.9946487E-04
   13.64000     -6.1881944E-04
   13.66000     -6.2688143E-04
   13.68000     -6.2286411E-04
   13.70000     -6.0711597E-04
   13.72000     -5.8106845E-04
   13.74000     -5.4643909E-04
   13.76000     -5.0441024E-04
   13.78000     -4.5549986E-04
   13.80000     -4.0019272E-04
   13.82000     -3.3970503E-04
   13.84000     -2.7614727E-04
   13.86000     -2.1191614E-04
   13.88000     -1.4884723E-04
   13.90000     -8.7858942E-05
   13.92000     -2.9348836E-05
   13.94000      2.6081381E-05
   13.96000      7.7267134E-05
   13.98000      1.2281201E-04
   14.00000      1.6178958E-04
   14.02000      1.9418399E-04
   14.04000      2.2071495E-04
   14.06000      2.4226501E-04
   14.08000      2.5944336E-04
   14.10000      2.7261511E-04
   14.12000      2.8224525E-04
   14.14000      2.8913570E-04
   14.16000      2.9430835E-04
   14.18000      2.9867803E-04
   14.20000      3.0285041E-04
   14.22000      3.0719789E-04
   14.24000      3.1204661E-04
   14.26000      3.1771610E-04
   14.28000      3.2437174E-04
   14.30000      3.3190637E-04
   14.32000      3.4004104E-04
   14.34000      3.4854613E-04
   14.36000      3.5728209E-04
   14.38000      3.6592252E-04
   14.40000      3.7361463E-04
   14.42000      3.7900437E-04
   14.44000      3.8074146E-04
   14.46000      3.7805253E-04
   14.48000      3.7080189E-04
   14.50000      3.5891417E-04
   14.52000      3.4171366E-04
   14.54000      3.1792274E-04
   14.56000      2.8647084E-04
   14.58000      2.4741591E-04
   14.60000      2.0205024E-04
   14.62000      1.5197931E-04
   14.64000      9.7991338E-05
   14.66000      3.9836803E-05
   14.68000     -2.2779535E-05
   14.70000     -8.8899957E-05
   14.72000     -1.5601415E-04
   14.74000     -2.2117849E-04
   14.76000     -2.8259560E-04
   14.78000     -3.4017058E-04
   14.80000     -3.9446875E-04
   14.82000     -4.4502594E-04
   14.84000     -4.8963691E-04
   14.86000     -5.2537408E-04
   14.88000     -5.5045926E-04
   14.90000     -5.6527485E-04
   14.92000     -5.7157787E-04
   14.94000     -5.7064788E-04
   14.96000     -5.6208752E-04
   14.98000     -5.4437289E-04
   15.00000     -5.1661918E-04
   15.02000     -4.7991652E-04
   15.04000     -4.3701805E-04
   15.06000     -3.9068298E-04
   15.08000     -3.4216820E-04
   15.10000     -2.9116354E-04
   15.12000     -2.3712670E-04
   15.14000     -1.8075627E-04
   15.16000     -1.2429952E-04
   15.18000     -7.0478221E-05
   15.20000     -2.1001915E-05
   15.22000      2.4087863E-05
   15.24000      6.5779670E-05
   15.26000      1.0478721E-04
   15.28000      1.4068773E-04
   15.30000      1.7216767E-04
   15.32000      1.9810628E-04
   15.34000      2.1857441E-04
   15.36000      2.3493175E-04
   15.38000      2.4894407E-04
   15.40000      2.6162621E-04
   15.42000      2.7274017E-04
   15.44000      2.8136172E-04
   15.46000      2.8705251E-04
   15.48000      2.9063993E-04
   15.50000      2.9388751E-04
   15.52000      2.9826601E-04
   15.54000      3.0385380E-04
   15.56000      3.0935594E-04
   15.58000      3.1328603E-04
   15.60000      3.1529384E-04
   15.62000      3.1641871E-04
   15.64000      3.1797402E-04
   15.66000      3.2003381E-04
   15.68000      3.2092517E-04
   15.70000      3.1826657E-04
   15.72000      3.1067172E-04
   15.74000      2.9858568E-04
   15.76000      2.8347998E-04
   15.78000      2.6614178E-04
   15.80000      2.4564328E-04
   15.82000      2.1996092E-04
   15.84000      1.8769367E-04
   15.86000      1.4932324E-04
   15.88000      1.0689451E-04
   15.90000      6.2446787E-05
   15.92000      1.6631857E-05
   15.94000     -3.1280037E-05
   15.96000     -8.2103346E-05
   15.98000     -1.3537683E-04
   16.00000     -1.8912970E-04
   16.02000     -2.4089002E-04
   16.04000     -2.8898238E-04
   16.06000     -3.3302576E-04
   16.08000     -3.7334394E-04
   16.10000     -4.0992722E-04
   16.12000     -4.4184641E-04
   16.14000     -4.6751645E-04
   16.16000     -4.8549194E-04
   16.18000     -4.9514527E-04
   16.20000     -4.9678487E-04
   16.22000     -4.9122371E-04
   16.24000     -4.7914928E-04
   16.26000     -4.6071850E-04
   16.28000     -4.3563615E-04
   16.30000     -4.0368424E-04
   16.32000     -3.6535534E-04
   16.34000     -3.2210027E-04
   16.36000     -2.7590309E-04
   16.38000     -2.2840350E-04
   16.40000     -1.8023446E-04
   16.42000     -1.3118045E-04
   16.44000     -8.1109327E-05
   16.46000     -3.0898580E-05
   16.48000      1.7533564E-05
   16.50000      6.2246727E-05
   16.52000      1.0251181E-04
   16.54000      1.3911653E-04
   16.56000      1.7335951E-04
   16.58000      2.0555883E-04
   16.60000      2.3443431E-04
   16.62000      2.5800880E-04
   16.64000      2.7529878E-04
   16.66000      2.8728732E-04
   16.68000      2.9625968E-04
   16.70000      3.0404038E-04
   16.72000      3.1068051E-04
   16.74000      3.1475769E-04
   16.76000      3.1500633E-04
   16.78000      3.1179897E-04
   16.80000      3.0713985E-04
   16.82000      3.0317093E-04
   16.84000      3.0051140E-04
   16.86000      2.9787852E-04
   16.88000      2.9328818E-04
   16.90000      2.8575727E-04
   16.92000      2.7603903E-04