  -2.400000      0.0000000E+00
  -2.380000      0.0000000E+00
  -2.360000      0.0000000E+00
  -2.340000      0.0000000E+00
  -2.320000      0.0000000E+00
  -2.300000      0.0000000E+00
  -2.280000      0.0000000E+00
  -2.260000      0.0000000E+00
  -2.240000      0.0000000E+00
  -2.220000      0.0000000E+00
  -2.200000      0.0000000E+00
  -2.180000      0.0000000E+00
  -2.160000      0.0000000E+00
  -2.140000      0.0000000E+00
  -2.120000      0.0000000E+00
  -2.100000      0.0000000E+00
  -2.080000      0.0000000E+00
  -2.060000      0.0000000E+00
  -2.040000      0.0000000E+00
  -2.020000      0.0000000E+00
  -2.000000      0.0000000E+00
  -1.980000      0.0000000E+00
  -1.960000      0.0000000E+00
  -1.940000      0.0000000E+00
  -1.920000      0.0000000E+00
  -1.900000      0.0000000E+00
  -1.880000      0.0000000E+00
  -1.860000      0.0000000E+00
  -1.840000      0.0000000E+00
  -1.820000      0.0000000E+00
  -1.800000      0.0000000E+00
  -1.780000      0.0000000E+00
  -1.760000      0.0000000E+00
  -1.740000      0.0000000E+00
  -1.720000      0.0000000E+00
  -1.700000      0.0000000E+00
  -1.680000      0.0000000E+00
  -1.660000      0.0000000E+00
  -1.640000      0.0000000E+00
  -1.620000      0.0000000E+00
  -1.600000      0.0000000E+00
  -1.580000      0.0000000E+00
  -1.560000      0.0000000E+00
  -1.540000      0.0000000E+00
  -1.520000      0.0000000E+00
  -1.500000      0.0000000E+00
  -1.480000      0.0000000E+00
  -1.460000      0.0000000E+00
  -1.440000      0.0000000E+00
  -1.420000      0.0000000E+00
  -1.400000      0.0000000E+00
  -1.380000      0.0000000E+00
  -1.360000      0.0000000E+00
  -1.340000      0.0000000E+00
  -1.320000      0.0000000E+00
  -1.300000      0.0000000E+00
  -1.280000      0.0000000E+00
  -1.260000      0.0000000E+00
  -1.240000      0.0000000E+00
  -1.220000      0.0000000E+00
  -1.200000      0.0000000E+00
  -1.180000      0.0000000E+00
  -1.160000      0.0000000E+00
  -1.140000      0.0000000E+00
  -1.120000      0.0000000E+00
  -1.100000      0.0000000E+00
  -1.080000      0.0000000E+00
  -1.060000      0.0000000E+00
  -1.040000      0.0000000E+00
  -1.020000      0.0000000E+00
  -1.000000      0.0000000E+00
 -0.9800000      0.0000000E+00
 -0.9600000      0.0000000E+00
 -0.9400000      0.0000000E+00
 -0.9200000      0.0000000E+00
 -0.9000000      0.0000000E+00
 -0.8800000      0.0000000E+00
 -0.8600000      0.0000000E+00
 -0.8400000      0.0000000E+00
 -0.8200000      0.0000000E+00
 -0.8000000      0.0000000E+00
 -0.7800000      0.0000000E+00
 -0.7600000      0.0000000E+00
 -0.7400000      0.0000000E+00
 -0.7200000      0.0000000E+00
 -0.7000000      0.0000000E+00
 -0.6800000      0.0000000E+00
 -0.6600000      0.0000000E+00
 -0.6400000      0.0000000E+00
 -0.6200000      0.0000000E+00
 -0.6000000      0.0000000E+00
 -0.5800000      0.0000000E+00
 -0.5600000      0.0000000E+00
 -0.5400000      0.0000000E+00
 -0.5200000      0.0000000E+00
 -0.5000000      0.0000000E+00
 -0.4800000      0.0000000E+00
 -0.4600000      0.0000000E+00
 -0.4400000      0.0000000E+00
 -0.4200000      0.0000000E+00
 -0.4000000      0.0000000E+00
 -0.3800000      0.0000000E+00
 -0.3600000      0.0000000E+00
 -0.3400000      0.0000000E+00
 -0.3200000      0.0000000E+00
 -0.3000000      0.0000000E+00
 -0.2800000      0.0000000E+00
 -0.2600000      0.0000000E+00
 -0.2400000      0.0000000E+00
 -0.2200000      0.0000000E+00
 -0.2000000      0.0000000E+00
 -0.1800000      0.0000000E+00
 -0.1600000      0.0000000E+00
 -0.1400000      0.0000000E+00
 -0.1200000      0.0000000E+00
 -0.1000000      0.0000000E+00
 -7.9999998E-02  0.0000000E+00
 -5.9999999E-02  0.0000000E+00
 -3.9999999E-02  0.0000000E+00
 -2.0000000E-02  0.0000000E+00
  0.0000000E+00  0.0000000E+00
  2.0000000E-02  0.0000000E+00
  3.9999999E-02  0.0000000E+00
  5.9999999E-02  0.0000000E+00
  7.9999998E-02  0.0000000E+00
  0.1000000      0.0000000E+00
  0.1200000      0.0000000E+00
  0.1400000      0.0000000E+00
  0.1600000      0.0000000E+00
  0.1800000      0.0000000E+00
  0.2000000      0.0000000E+00
  0.2200000      0.0000000E+00
  0.2400000      0.0000000E+00
  0.2600000      0.0000000E+00
  0.2800000      0.0000000E+00
  0.3000000      0.0000000E+00
  0.3200000      0.0000000E+00
  0.3400000      0.0000000E+00
  0.3600000      0.0000000E+00
  0.3800000      0.0000000E+00
  0.4000000      0.0000000E+00
  0.4200000      0.0000000E+00
  0.4400000      0.0000000E+00
  0.4600000      0.0000000E+00
  0.4800000      0.0000000E+00
  0.5000000      0.0000000E+00
  0.5200000      0.0000000E+00
  0.5400000      0.0000000E+00
  0.5600000      0.0000000E+00
  0.5800000      0.0000000E+00
  0.6000000      0.0000000E+00
  0.6200000      0.0000000E+00
  0.6400000      0.0000000E+00
  0.6600000      0.0000000E+00
  0.6800000      0.0000000E+00
  0.7000000      0.0000000E+00
  0.7200000      0.0000000E+00
  0.7400000      0.0000000E+00
  0.7600000      0.0000000E+00
  0.7800000      0.0000000E+00
  0.8000000      0.0000000E+00
  0.8200000      0.0000000E+00
  0.8400000      0.0000000E+00
  0.8600000      0.0000000E+00
  0.8800000      0.0000000E+00
  0.9000000      0.0000000E+00
  0.9200000      0.0000000E+00
  0.9400000      0.0000000E+00
  0.9600000      0.0000000E+00
  0.9800000      0.0000000E+00
   1.000000      0.0000000E+00
   1.020000      0.0000000E+00
   1.040000      0.0000000E+00
   1.060000      0.0000000E+00
   1.080000      0.0000000E+00
   1.100000      0.0000000E+00
   1.120000      0.0000000E+00
   1.140000      0.0000000E+00
   1.160000      0.0000000E+00
   1.180000      0.0000000E+00
   1.200000      0.0000000E+00
   1.220000      0.0000000E+00
   1.240000      0.0000000E+00
   1.260000      0.0000000E+00
   1.280000      0.0000000E+00
   1.300000      0.0000000E+00
   1.320000      0.0000000E+00
   1.340000      0.0000000E+00
   1.360000      0.0000000E+00
   1.380000      0.0000000E+00
   1.400000      0.0000000E+00
   1.420000      0.0000000E+00
   1.440000      0.0000000E+00
   1.460000      0.0000000E+00
   1.480000      0.0000000E+00
   1.500000      0.0000000E+00
   1.520000      0.0000000E+00
   1.540000      0.0000000E+00
   1.560000      0.0000000E+00
   1.580000      0.0000000E+00
   1.600000      0.0000000E+00
   1.620000      0.0000000E+00
   1.640000      0.0000000E+00
   1.660000      0.0000000E+00
   1.680000      0.0000000E+00
   1.700000      0.0000000E+00
   1.720000      0.0000000E+00
   1.740000      0.0000000E+00
   1.760000      0.0000000E+00
   1.780000      0.0000000E+00
   1.800000      0.0000000E+00
   1.820000      0.0000000E+00
   1.840000      0.0000000E+00
   1.860000      0.0000000E+00
   1.880000      0.0000000E+00
   1.900000      0.0000000E+00
   1.920000      0.0000000E+00
   1.940000      0.0000000E+00
   1.960000      0.0000000E+00
   1.980000      0.0000000E+00
   2.000000      0.0000000E+00
   2.020000      0.0000000E+00
   2.040000      0.0000000E+00
   2.060000      0.0000000E+00
   2.080000      0.0000000E+00
   2.100000      0.0000000E+00
   2.120000      0.0000000E+00
   2.140000      0.0000000E+00
   2.160000      0.0000000E+00
   2.180000      0.0000000E+00
   2.200000      0.0000000E+00
   2.220000      0.0000000E+00
   2.240000      0.0000000E+00
   2.260000      0.0000000E+00
   2.280000      0.0000000E+00
   2.300000      0.0000000E+00
   2.320000      0.0000000E+00
   2.340000      0.0000000E+00
   2.360000      0.0000000E+00
   2.380000      0.0000000E+00
   2.400000      0.0000000E+00
   2.420000      0.0000000E+00
   2.440000      0.0000000E+00
   2.460000      0.0000000E+00
   2.480000      0.0000000E+00
   2.500000      0.0000000E+00
   2.520000      0.0000000E+00
   2.540000      0.0000000E+00
   2.560000      0.0000000E+00
   2.580000      0.0000000E+00
   2.600000      0.0000000E+00
   2.620000      0.0000000E+00
   2.640000      0.0000000E+00
   2.660000      0.0000000E+00
   2.680000      0.0000000E+00
   2.700000      0.0000000E+00
   2.720000      0.0000000E+00
   2.740000      0.0000000E+00
   2.760000      0.0000000E+00
   2.780000      0.0000000E+00
   2.800000      0.0000000E+00
   2.820000      0.0000000E+00
   2.840000      0.0000000E+00
   2.860000      0.0000000E+00
   2.880000      0.0000000E+00
   2.900000      0.0000000E+00
   2.920000      0.0000000E+00
   2.940000      0.0000000E+00
   2.960000      0.0000000E+00
   2.980000      0.0000000E+00
   3.000000      0.0000000E+00
   3.020000      0.0000000E+00
   3.040000      0.0000000E+00
   3.060000      0.0000000E+00
   3.080000      0.0000000E+00
   3.100000      0.0000000E+00
   3.120000      0.0000000E+00
   3.140000      0.0000000E+00
   3.160000      0.0000000E+00
   3.180000      0.0000000E+00
   3.200000      0.0000000E+00
   3.220000      0.0000000E+00
   3.240000      0.0000000E+00
   3.260000      0.0000000E+00
   3.280000      0.0000000E+00
   3.300000      0.0000000E+00
   3.320000      0.0000000E+00
   3.340000      0.0000000E+00
   3.360000      0.0000000E+00
   3.380000      0.0000000E+00
   3.400000      0.0000000E+00
   3.420000      0.0000000E+00
   3.440000      0.0000000E+00
   3.460000      0.0000000E+00
   3.480000      0.0000000E+00
   3.500000      0.0000000E+00
   3.520000      0.0000000E+00
   3.540000      0.0000000E+00
   3.560000      0.0000000E+00
   3.580000      0.0000000E+00
   3.600000      0.0000000E+00
   3.620000      0.0000000E+00
   3.640000      0.0000000E+00
   3.660000      0.0000000E+00
   3.680000      0.0000000E+00
   3.700000      0.0000000E+00
   3.720000      0.0000000E+00
   3.740000      0.0000000E+00
   3.760000      0.0000000E+00
   3.780000      0.0000000E+00
   3.800000      0.0000000E+00
   3.820000      0.0000000E+00
   3.840000      0.0000000E+00
   3.860000      0.0000000E+00
   3.880000      0.0000000E+00
   3.900000      0.0000000E+00
   3.920000      0.0000000E+00
   3.940000      0.0000000E+00
   3.960000      0.0000000E+00
   3.980000      0.0000000E+00
   4.000000      0.0000000E+00
   4.020000      0.0000000E+00
   4.040000      0.0000000E+00
   4.060000      0.0000000E+00
   4.080000      0.0000000E+00
   4.100000      0.0000000E+00
   4.120000      0.0000000E+00
   4.140000      0.0000000E+00
   4.160000      0.0000000E+00
   4.180000      0.0000000E+00
   4.200000      0.0000000E+00
   4.220000      0.0000000E+00
   4.240000      0.0000000E+00
   4.260000      0.0000000E+00
   4.280000      0.0000000E+00
   4.300000      0.0000000E+00
   4.320000      0.0000000E+00
   4.340000      0.0000000E+00
   4.360000      0.0000000E+00
   4.380000      0.0000000E+00
   4.400000      0.0000000E+00
   4.420000      0.0000000E+00
   4.440000      0.0000000E+00
   4.460000      0.0000000E+00
   4.480000      0.0000000E+00
   4.500000      0.0000000E+00
   4.520000      0.0000000E+00
   4.540000      0.0000000E+00
   4.560000      0.0000000E+00
   4.580000      0.0000000E+00
   4.600000      0.0000000E+00
   4.620000      0.0000000E+00
   4.640000      0.0000000E+00
   4.660000      0.0000000E+00
   4.680000      0.0000000E+00
   4.700000      0.0000000E+00
   4.720000      0.0000000E+00
   4.740000      0.0000000E+00
   4.760000      0.0000000E+00
   4.780000      0.0000000E+00
   4.800000      0.0000000E+00
   4.820000      0.0000000E+00
   4.840000      0.0000000E+00
   4.860000      0.0000000E+00
   4.880000      0.0000000E+00
   4.900000      0.0000000E+00
   4.920000      0.0000000E+00
   4.940000      0.0000000E+00
   4.960000      0.0000000E+00
   4.980000      0.0000000E+00
   5.000000      0.0000000E+00
   5.020000      0.0000000E+00
   5.040000      0.0000000E+00
   5.060000      0.0000000E+00
   5.080000      0.0000000E+00
   5.100000      0.0000000E+00
   5.120000      0.0000000E+00
   5.140000      0.0000000E+00
   5.160000      0.0000000E+00
   5.180000      0.0000000E+00
   5.200000      0.0000000E+00
   5.220000      0.0000000E+00
   5.240000      0.0000000E+00
   5.260000      0.0000000E+00
   5.280000      0.0000000E+00
   5.300000      0.0000000E+00
   5.320000      0.0000000E+00
   5.340000      0.0000000E+00
   5.360000      0.0000000E+00
   5.380000      0.0000000E+00
   5.400000      0.0000000E+00
   5.420000      0.0000000E+00
   5.440000      0.0000000E+00
   5.460000      0.0000000E+00
   5.480000      0.0000000E+00
   5.500000      0.0000000E+00
   5.520000      0.0000000E+00
   5.540000      0.0000000E+00
   5.560000      0.0000000E+00
   5.580000      0.0000000E+00
   5.600000      0.0000000E+00
   5.620000      0.0000000E+00
   5.640000      0.0000000E+00
   5.660000      0.0000000E+00
   5.680000      0.0000000E+00
   5.700000      0.0000000E+00
   5.720000      0.0000000E+00
   5.740000      0.0000000E+00
   5.760000      0.0000000E+00
   5.780000      0.0000000E+00
   5.800000      0.0000000E+00
   5.820000      0.0000000E+00
   5.840000      0.0000000E+00
   5.860000      0.0000000E+00
   5.880000      0.0000000E+00
   5.900000      0.0000000E+00
   5.920000      0.0000000E+00
   5.940000      0.0000000E+00
   5.960000      0.0000000E+00
   5.980000      0.0000000E+00
   6.000000      0.0000000E+00
   6.020000      0.0000000E+00
   6.040000      0.0000000E+00
   6.060000      0.0000000E+00
   6.080000      0.0000000E+00
   6.100000      0.0000000E+00
   6.120000      0.0000000E+00
   6.140000      0.0000000E+00
   6.160000      0.0000000E+00
   6.180000      0.0000000E+00
   6.200000      0.0000000E+00
   6.220000      0.0000000E+00
   6.240000      0.0000000E+00
   6.260000      0.0000000E+00
   6.280000      0.0000000E+00
   6.300000      0.0000000E+00
   6.320000      0.0000000E+00
   6.340000      0.0000000E+00
   6.360000      0.0000000E+00
   6.380000      0.0000000E+00
   6.400000      0.0000000E+00
   6.420000      0.0000000E+00
   6.440000      0.0000000E+00
   6.460000      0.0000000E+00
   6.480000      0.0000000E+00
   6.500000      0.0000000E+00
   6.520000      0.0000000E+00
   6.540000      0.0000000E+00
   6.560000      0.0000000E+00
   6.580000      0.0000000E+00
   6.600000      0.0000000E+00
   6.620000      0.0000000E+00
   6.640000      0.0000000E+00
   6.660000      0.0000000E+00
   6.680000      0.0000000E+00
   6.700000      0.0000000E+00
   6.720000      0.0000000E+00
   6.740000      0.0000000E+00
   6.760000      0.0000000E+00
   6.780000      0.0000000E+00
   6.800000      0.0000000E+00
   6.820000      0.0000000E+00
   6.840000      0.0000000E+00
   6.860000      0.0000000E+00
   6.880000      0.0000000E+00
   6.900000      0.0000000E+00
   6.920000      0.0000000E+00
   6.940000      0.0000000E+00
   6.960000      0.0000000E+00
   6.980000      0.0000000E+00
   7.000000      0.0000000E+00
   7.020000      0.0000000E+00
   7.040000      0.0000000E+00
   7.060000      0.0000000E+00
   7.080000      0.0000000E+00
   7.100000      0.0000000E+00
   7.120000      0.0000000E+00
   7.140000      0.0000000E+00
   7.160000      0.0000000E+00
   7.180000      0.0000000E+00
   7.200000      0.0000000E+00
   7.220000      0.0000000E+00
   7.240000      0.0000000E+00
   7.260000      0.0000000E+00
   7.280000      0.0000000E+00
   7.300000      0.0000000E+00
   7.320000      0.0000000E+00
   7.340000      0.0000000E+00
   7.360000      0.0000000E+00
   7.380000      0.0000000E+00
   7.400000      0.0000000E+00
   7.420000      0.0000000E+00
   7.440000      0.0000000E+00
   7.460000      0.0000000E+00
   7.480000      0.0000000E+00
   7.500000      0.0000000E+00
   7.520000      0.0000000E+00
   7.540000      0.0000000E+00
   7.560000      0.0000000E+00
   7.580000      0.0000000E+00
   7.600000      0.0000000E+00
   7.620000      0.0000000E+00
   7.640000      0.0000000E+00
   7.660000      0.0000000E+00
   7.680000      0.0000000E+00
   7.700000      0.0000000E+00
   7.720000      0.0000000E+00
   7.740000      0.0000000E+00
   7.760000      0.0000000E+00
   7.780000      0.0000000E+00
   7.800000      0.0000000E+00
   7.820000      0.0000000E+00
   7.840000      0.0000000E+00
   7.860000      0.0000000E+00
   7.880000      0.0000000E+00
   7.900000      0.0000000E+00
   7.920000      0.0000000E+00
   7.940000      0.0000000E+00
   7.960000      0.0000000E+00
   7.980000      0.0000000E+00
   8.000000      0.0000000E+00
   8.020000      0.0000000E+00
   8.040000      0.0000000E+00
   8.060000      0.0000000E+00
   8.080000      0.0000000E+00
   8.100000      0.0000000E+00
   8.120000      0.0000000E+00
   8.140000      0.0000000E+00
   8.160000      0.0000000E+00
   8.180000      0.0000000E+00
   8.200000      0.0000000E+00
   8.220000      0.0000000E+00
   8.240000      0.0000000E+00
   8.260000      0.0000000E+00
   8.280000      0.0000000E+00
   8.300000      0.0000000E+00
   8.320000      0.0000000E+00
   8.340000      0.0000000E+00
   8.360000      0.0000000E+00
   8.380000      0.0000000E+00
   8.400000      0.0000000E+00
   8.420000      0.0000000E+00
   8.440000      0.0000000E+00
   8.460000      0.0000000E+00
   8.480000      0.0000000E+00
   8.500000      0.0000000E+00
   8.520000      0.0000000E+00
   8.540000      0.0000000E+00
   8.560000      0.0000000E+00
   8.580000      0.0000000E+00
   8.600000      0.0000000E+00
   8.620000      0.0000000E+00
   8.640000      0.0000000E+00
   8.660000      0.0000000E+00
   8.680000      0.0000000E+00
   8.700000      0.0000000E+00
   8.720000      0.0000000E+00
   8.740000      0.0000000E+00
   8.760000      0.0000000E+00
   8.780000      0.0000000E+00
   8.800000      0.0000000E+00
   8.820000      0.0000000E+00
   8.840000      0.0000000E+00
   8.860000      0.0000000E+00
   8.880000      0.0000000E+00
   8.900000      0.0000000E+00
   8.920000      0.0000000E+00
   8.940000      0.0000000E+00
   8.960000      0.0000000E+00
   8.980000      0.0000000E+00
   9.000000      0.0000000E+00
   9.020000      0.0000000E+00
   9.040000      0.0000000E+00
   9.060000      0.0000000E+00
   9.080000      0.0000000E+00
   9.100000      0.0000000E+00
   9.120000      0.0000000E+00
   9.140000      0.0000000E+00
   9.160000      0.0000000E+00
   9.180000      0.0000000E+00
   9.200000      0.0000000E+00
   9.220000      0.0000000E+00
   9.240000      0.0000000E+00
   9.260000      0.0000000E+00
   9.280000      0.0000000E+00
   9.300000      0.0000000E+00
   9.320000      0.0000000E+00
   9.340000      0.0000000E+00
   9.360000      0.0000000E+00
   9.380000      0.0000000E+00
   9.400000      0.0000000E+00
   9.420000      0.0000000E+00
   9.440000      0.0000000E+00
   9.460000      0.0000000E+00
   9.480000      0.0000000E+00
   9.500000      0.0000000E+00
   9.520000      0.0000000E+00
   9.540000      0.0000000E+00
   9.560000      0.0000000E+00
   9.580000      0.0000000E+00
   9.600000      0.0000000E+00
   9.620000      0.0000000E+00
   9.640000      0.0000000E+00
   9.660000      0.0000000E+00
   9.680000      0.0000000E+00
   9.700000      0.0000000E+00
   9.720000      0.0000000E+00
   9.740000      0.0000000E+00
   9.760000      0.0000000E+00
   9.780000      0.0000000E+00
   9.800000      0.0000000E+00
   9.820000      0.0000000E+00
   9.840000      0.0000000E+00
   9.860000      0.0000000E+00
   9.880000      0.0000000E+00
   9.900000      0.0000000E+00
   9.920000      0.0000000E+00
   9.940000      0.0000000E+00
   9.960000      0.0000000E+00
   9.980000      0.0000000E+00
   10.00000      0.0000000E+00
   10.02000      0.0000000E+00
   10.04000      0.0000000E+00
   10.06000      0.0000000E+00
   10.08000      0.0000000E+00
   10.10000      0.0000000E+00
   10.12000      0.0000000E+00
   10.14000      0.0000000E+00
   10.16000      0.0000000E+00
   10.18000      0.0000000E+00
   10.20000      0.0000000E+00
   10.22000      0.0000000E+00
   10.24000      0.0000000E+00
   10.26000      0.0000000E+00
   10.28000      0.0000000E+00
   10.30000      0.0000000E+00
   10.32000      0.0000000E+00
   10.34000      0.0000000E+00
   10.36000      0.0000000E+00
   10.38000      0.0000000E+00
   10.40000      0.0000000E+00
   10.42000      0.0000000E+00
   10.44000      0.0000000E+00
   10.46000      0.0000000E+00
   10.48000      0.0000000E+00
   10.50000      0.0000000E+00
   10.52000      0.0000000E+00
   10.54000      0.0000000E+00
   10.56000      0.0000000E+00
   10.58000      0.0000000E+00
   10.60000      0.0000000E+00
   10.62000      0.0000000E+00
   10.64000      0.0000000E+00
   10.66000      0.0000000E+00
   10.68000      0.0000000E+00
   10.70000      0.0000000E+00
   10.72000      0.0000000E+00
   10.74000      0.0000000E+00
   10.76000      0.0000000E+00
   10.78000      0.0000000E+00
   10.80000      0.0000000E+00
   10.82000      0.0000000E+00
   10.84000      0.0000000E+00
   10.86000      0.0000000E+00
   10.88000      0.0000000E+00
   10.90000      0.0000000E+00
   10.92000      0.0000000E+00
   10.94000      0.0000000E+00
   10.96000      0.0000000E+00
   10.98000      0.0000000E+00
   11.00000      0.0000000E+00
   11.02000      0.0000000E+00
   11.04000      0.0000000E+00
   11.06000      0.0000000E+00
   11.08000      0.0000000E+00
   11.10000      0.0000000E+00
   11.12000      0.0000000E+00
   11.14000      0.0000000E+00
   11.16000      0.0000000E+00
   11.18000      0.0000000E+00
   11.20000      0.0000000E+00
   11.22000      0.0000000E+00
   11.24000      0.0000000E+00
   11.26000      0.0000000E+00
   11.28000      0.0000000E+00
   11.30000      0.0000000E+00
   11.32000      0.0000000E+00
   11.34000      0.0000000E+00
   11.36000      0.0000000E+00
   11.38000      0.0000000E+00
   11.40000      0.0000000E+00
   11.42000      0.0000000E+00
   11.44000      0.0000000E+00
   11.46000      0.0000000E+00
   11.48000      0.0000000E+00
   11.50000      0.0000000E+00
   11.52000      0.0000000E+00
   11.54000      0.0000000E+00
   11.56000      0.0000000E+00
   11.58000      0.0000000E+00
   11.60000      0.0000000E+00
   11.62000      0.0000000E+00
   11.64000      0.0000000E+00
   11.66000      0.0000000E+00
   11.68000      0.0000000E+00
   11.70000      0.0000000E+00
   11.72000      0.0000000E+00
   11.74000      0.0000000E+00
   11.76000      0.0000000E+00
   11.78000      0.0000000E+00
   11.80000      0.0000000E+00
   11.82000      0.0000000E+00
   11.84000      0.0000000E+00
   11.86000      0.0000000E+00
   11.88000      0.0000000E+00
   11.90000      0.0000000E+00
   11.92000      0.0000000E+00
   11.94000      0.0000000E+00
   11.96000      0.0000000E+00
   11.98000      0.0000000E+00
   12.00000      0.0000000E+00
   12.02000      0.0000000E+00
   12.04000      0.0000000E+00
   12.06000      0.0000000E+00
   12.08000      0.0000000E+00
   12.10000      0.0000000E+00
   12.12000      0.0000000E+00
   12.14000      0.0000000E+00
   12.16000      0.0000000E+00
   12.18000      0.0000000E+00
   12.20000      0.0000000E+00
   12.22000      0.0000000E+00
   12.24000      0.0000000E+00
   12.26000      0.0000000E+00
   12.28000      0.0000000E+00
   12.30000      0.0000000E+00
   12.32000      0.0000000E+00
   12.34000      0.0000000E+00
   12.36000      0.0000000E+00
   12.38000      0.0000000E+00
   12.40000      0.0000000E+00
   12.42000      0.0000000E+00
   12.44000      0.0000000E+00
   12.46000      0.0000000E+00
   12.48000      0.0000000E+00
   12.50000      0.0000000E+00
   12.52000      0.0000000E+00
   12.54000      0.0000000E+00
   12.56000      0.0000000E+00
   12.58000      0.0000000E+00
   12.60000      0.0000000E+00
   12.62000      0.0000000E+00
   12.64000      0.0000000E+00
   12.66000      0.0000000E+00
   12.68000      0.0000000E+00
   12.70000      0.0000000E+00
   12.72000      0.0000000E+00
   12.74000      0.0000000E+00
   12.76000      0.0000000E+00
   12.78000      0.0000000E+00
   12.80000      0.0000000E+00
   12.82000      0.0000000E+00
   12.84000      0.0000000E+00
   12.86000      0.0000000E+00
   12.88000      0.0000000E+00
   12.90000      0.0000000E+00
   12.92000      0.0000000E+00
   12.94000      0.0000000E+00
   12.96000      0.0000000E+00
   12.98000      0.0000000E+00
   13.00000      0.0000000E+00
   13.02000      0.0000000E+00
   13.04000      0.0000000E+00
   13.06000      0.0000000E+00
   13.08000      0.0000000E+00
   13.10000      0.0000000E+00
   13.12000      0.0000000E+00
   13.14000      0.0000000E+00
   13.16000      0.0000000E+00
   13.18000      0.0000000E+00
   13.20000      0.0000000E+00
   13.22000      0.0000000E+00
   13.24000      0.0000000E+00
   13.26000      0.0000000E+00
   13.28000      0.0000000E+00
   13.30000      0.0000000E+00
   13.32000      0.0000000E+00
   13.34000      0.0000000E+00
   13.36000      0.0000000E+00
   13.38000      0.0000000E+00
   13.40000      0.0000000E+00
   13.42000      0.0000000E+00
   13.44000      1.5015496E-38
   13.46000      2.2134922E-38
   13.48000      1.9663305E-38
   13.50000      1.8002006E-38
   13.52000      0.0000000E+00
   13.54000      0.0000000E+00
   13.56000      0.0000000E+00
   13.58000      0.0000000E+00
   13.60000     -5.3186894E-38
   13.62000     -1.1155599E-37
   13.64000     -2.1093620E-37
   13.66000     -1.3333575E-37
   13.68000      1.5687125E-37
   13.70000      4.0215988E-37
   13.72000      4.7807250E-37
   13.74000      4.1097968E-38
   13.76000     -5.4063579E-37
   13.78000     -3.7374596E-37
   13.80000      4.1858157E-37
   13.82000      1.6878611E-36
   13.84000      1.7249459E-36
   13.86000     -3.0314142E-37
   13.88000     -3.4708889E-36
   13.90000     -4.3288322E-36
   13.92000     -6.0652305E-37
   13.94000      5.2794964E-36
   13.96000      6.5513090E-36
   13.98000     -5.2538917E-37
   14.00000     -1.0433119E-35
   14.02000     -1.2582288E-35
   14.04000     -3.8826096E-36
   14.06000      1.0991402E-35
   14.08000      1.7769170E-35
   14.10000      9.8801520E-36
   14.12000     -8.3952301E-36
   14.14000     -2.0998117E-35
   14.16000     -1.6400817E-35
   14.18000      2.5141822E-36
   14.20000      1.9993711E-35
   14.22000      2.1970159E-35
   14.24000      7.4921113E-36
   14.26000     -1.1737822E-35
   14.28000     -2.2100653E-35
   14.30000     -1.8831335E-35
   14.32000     -5.0576631E-36
   14.34000      1.1537731E-35
   14.36000      2.4487157E-35
   14.38000      2.7737864E-35
   14.40000      1.6309920E-35
   14.42000     -8.9920877E-36
   14.44000     -3.7294300E-35
   14.46000     -4.8404900E-35
   14.48000     -2.6137341E-35
   14.50000      2.4078007E-35
   14.52000      7.0024882E-35
   14.54000      7.1253032E-35
   14.56000      1.2675317E-35
   14.58000     -7.3729921E-35
   14.60000     -1.2249340E-34
   14.62000     -8.1528821E-35
   14.64000      3.9356047E-35
   14.66000      1.5990918E-34
   14.68000      1.7851530E-34
   14.70000      5.2451700E-35
   14.72000     -1.5048228E-34
   14.74000     -2.7967123E-34
   14.76000     -2.0658705E-34
   14.78000      6.0851227E-35
   14.80000      3.4830382E-34
   14.82000      4.1783654E-34
   14.84000      1.5233277E-34
   14.86000     -3.1282028E-34
   14.88000     -6.3700053E-34
   14.90000     -5.0870413E-34
   14.92000      8.2269113E-35
   14.94000      7.5667889E-34
   14.96000      9.6570892E-34
   14.98000      4.1244814E-34
   15.00000     -6.3109082E-34
   15.02000     -1.4079954E-33
   15.04000     -1.1932603E-33
   15.06000      8.4316614E-35
   15.08000      1.6155300E-33
   15.10000      2.1713155E-33
   15.12000      1.0347250E-33
   15.14000     -1.2639684E-33
   15.16000     -3.0790884E-33
   15.18000     -2.7557942E-33
   15.20000     -2.3844432E-35
   15.22000      3.4232482E-33
   15.24000      4.8581058E-33
   15.26000      2.5574940E-33
   15.28000     -2.4879224E-33
   15.30000     -6.7175888E-33
   15.32000     -6.3507794E-33
   15.34000     -5.2339892E-34
   15.36000      7.2350061E-33
   15.38000      1.0858322E-32
   15.40000      6.2226285E-33
   15.42000     -4.8661425E-33
   15.44000     -1.4676597E-32
   15.46000     -1.4574329E-32
   15.48000     -2.1032753E-33
   15.50000      1.5343258E-32
   15.52000      2.4255143E-32
   15.54000      1.4887498E-32
   15.56000     -9.5043817E-33
   15.58000     -3.2082820E-32
   15.60000     -3.3225016E-32
   15.62000     -6.4656068E-33
   15.64000      3.2632279E-32
   15.66000      5.4036735E-32
   15.68000      3.5043032E-32
   15.70000     -1.8558953E-32
   15.72000     -7.0100717E-32
   15.74000     -7.5283895E-32
   15.76000     -1.7868075E-32
   15.78000      6.9358739E-32
   15.80000      1.1992312E-31
   15.82000      8.1555046E-32
   15.84000     -3.5789177E-32
   15.86000     -1.5255774E-31
   15.88000     -1.6949555E-31
   15.90000     -4.6935497E-32
   15.92000      1.4643373E-31
   15.94000      2.6448061E-31
   15.96000      1.8810184E-31
   15.98000     -6.6916450E-32
   16.00000     -3.2936085E-31
   16.02000     -3.7874973E-31
   16.04000     -1.1988111E-31
   16.06000      3.0516912E-31
   16.08000      5.7817574E-31
   16.10000      4.3034260E-31
   16.12000     -1.1791789E-31
   16.14000     -7.0255287E-31
   16.16000     -8.3871531E-31
   16.18000     -3.0075761E-31
   16.20000      6.2334213E-31
   16.22000      1.2490378E-30
   16.24000      9.7581802E-31
   16.26000     -1.8574921E-31
   16.28000     -1.4741038E-30
   16.30000     -1.8359589E-30
   16.32000     -7.4258597E-31
   16.34000      1.2385888E-30
   16.36000      2.6573840E-30
   16.38000      2.1879740E-30
   16.40000     -2.2767426E-31
   16.42000     -3.0288481E-30
   16.44000     -3.9607784E-30
   16.46000     -1.8006149E-30
   16.48000      2.3745702E-30
   16.50000      5.5487118E-30
   16.52000      4.8358762E-30
   16.54000     -7.6496512E-32
   16.56000     -6.0679778E-30
   16.58000     -8.3950135E-30
   16.60000     -4.2738138E-30
   16.62000      4.3483255E-30
   16.64000      1.1332103E-29
   16.66000      1.0501065E-29
   16.68000      7.7096306E-31
   16.70000     -1.1797665E-29
   16.72000     -1.7424732E-29
   16.74000     -9.8939505E-30
   16.76000      7.4966778E-30
   16.78000      2.2554421E-29
   16.80000      2.2321150E-29
   16.82000      3.6265332E-30
   16.84000     -2.2146927E-29
   16.86000     -3.5295074E-29
   16.88000     -2.2252322E-29
   16.90000      1.1893936E-29
   16.92000      4.3590842E-29