  -2.400000      0.0000000E+00
  -2.380000      2.5283828E-04
  -2.360000      6.4380112E-04
  -2.340000      9.9565252E-04
  -2.320000      1.2166852E-03
  -2.300000      1.3689795E-03
  -2.280000      1.6050157E-03
  -2.260000      2.0361957E-03
  -2.240000      2.6510558E-03
  -2.220000      3.3497864E-03
  -2.200000      4.0562344E-03
  -2.180000      4.8045632E-03
  -2.160000      5.7279272E-03
  -2.140000      6.9671092E-03
  -2.120000      8.5842144E-03
  -2.100000      1.0554386E-02
  -2.080000      1.2835198E-02
  -2.060000      1.5448251E-02
  -2.040000      1.8505109E-02
  -2.020000      2.2164758E-02
  -2.000000      2.6568657E-02
  -1.980000      3.1812143E-02
  -1.960000      3.7972875E-02
  -1.940000      4.5166612E-02
  -1.920000      5.3581487E-02
  -1.900000      6.3465409E-02
  -1.880000      7.5082846E-02
  -1.860000      8.8681124E-02
  -1.840000      0.1044954    
  -1.820000      0.1227885    
  -1.800000      0.1438937    
  -1.780000      0.1682289    
  -1.760000      0.1962733    
  -1.740000      0.2285288    
  -1.720000      0.2655008    
  -1.700000      0.3077151    
  -1.680000      0.3557613    
  -1.660000      0.4103262    
  -1.640000      0.4721913    
  -1.620000      0.5421950    
  -1.600000      0.6211908    
  -1.580000      0.7100353    
  -1.560000      0.8096173    
  -1.540000      0.9209025    
  -1.520000       1.044953    
  -1.500000       1.182905    
  -1.480000       1.335912    
  -1.460000       1.505104    
  -1.440000       1.691581    
  -1.420000       1.896438    
  -1.400000       2.120794    
  -1.380000       2.365778    
  -1.360000       2.632482    
  -1.340000       2.921896    
  -1.320000       3.234870    
  -1.300000       3.572112    
  -1.280000       3.934196    
  -1.260000       4.321560    
  -1.240000       4.734466    
  -1.220000       5.172931    
  -1.200000       5.636673    
  -1.180000       6.125077    
  -1.160000       6.637187    
  -1.140000       7.171710    
  -1.120000       7.726985    
  -1.100000       8.300945    
  -1.080000       8.891056    
  -1.060000       9.494283    
  -1.040000       10.10709    
  -1.020000       10.72543    
  -1.000000       11.34483    
 -0.9800000       11.96029    
 -0.9600000       12.56632    
 -0.9400000       13.15692    
 -0.9200000       13.72561    
 -0.9000000       14.26546    
 -0.8800000       14.76923    
 -0.8600000       15.22933    
 -0.8400000       15.63795    
 -0.8200000       15.98704    
 -0.8000000       16.26839    
 -0.7800000       16.47376    
 -0.7600000       16.59503    
 -0.7400000       16.62426    
 -0.7200000       16.55385    
 -0.7000000       16.37659    
 -0.6800000       16.08575    
 -0.6600000       15.67525    
 -0.6400000       15.13976    
 -0.6200000       14.47491    
 -0.6000000       13.67736    
 -0.5800000       12.74491    
 -0.5600000       11.67653    
 -0.5400000       10.47249    
 -0.5200000       9.134438    
 -0.5000000       7.665482    
 -0.4800000       6.070277    
 -0.4600000       4.355014    
 -0.4400000       2.527405    
 -0.4200000      0.5966492    
 -0.4000000      -1.426589    
 -0.3800000      -3.530221    
 -0.3600000      -5.700797    
 -0.3400000      -7.923609    
 -0.3200000      -10.18284    
 -0.3000000      -12.46171    
 -0.2800000      -14.74270    
 -0.2600000      -17.00763    
 -0.2400000      -19.23794    
 -0.2200000      -21.41483    
 -0.2000000      -23.51950    
 -0.1800000      -25.53340    
 -0.1600000      -27.43843    
 -0.1400000      -29.21722    
 -0.1200000      -30.85331    
 -0.1000000      -32.33133    
 -7.9999998E-02  -33.63727    
 -5.9999999E-02  -34.75859    
 -3.9999999E-02  -35.68442    
 -2.0000000E-02  -36.40577    
  0.0000000E+00  -36.91559    
  2.0000000E-02  -37.20887    
  3.9999999E-02  -37.28271    
  5.9999999E-02  -37.13636    
  7.9999998E-02  -36.77121    
  0.1000000      -36.19083    
  0.1200000      -35.40089    
  0.1400000      -34.40907    
  0.1600000      -33.22499    
  0.1800000      -31.86004    
  0.2000000      -30.32721    
  0.2200000      -28.64097    
  0.2400000      -26.81707    
  0.2600000      -24.87232    
  0.2800000      -22.82439    
  0.3000000      -20.69155    
  0.3200000      -18.49249    
  0.3400000      -16.24603    
  0.3600000      -13.97096    
  0.3800000      -11.68578    
  0.4000000      -9.408554    
  0.4200000      -7.156642    
  0.4400000      -4.946554    
  0.4600000      -2.793777    
  0.4800000     -0.7126440    
  0.5000000       1.283779    
  0.5200000       3.183791    
  0.5400000       4.977139    
  0.5600000       6.655077    
  0.5800000       8.210391    
  0.6000000       9.637417    
  0.6200000       10.93201    
  0.6400000       12.09150    
  0.6600000       13.11468    
  0.6800000       14.00168    
  0.7000000       14.75397    
  0.7200000       15.37421    
  0.7400000       15.86613    
  0.7600000       16.23445    
  0.7800000       16.48476    
  0.8000000       16.62336    
  0.8200000       16.65720    
  0.8400000       16.59370    
  0.8600000       16.44068    
  0.8800000       16.20619    
  0.9000000       15.89842    
  0.9200000       15.52560    
  0.9400000       15.09592    
  0.9600000       14.61742    
  0.9800000       14.09790    
   1.000000       13.54490    
   1.020000       12.96558    
   1.040000       12.36670    
   1.060000       11.75458    
   1.080000       11.13506    
   1.100000       10.51351    
   1.120000       9.894790    
   1.140000       9.283248    
   1.160000       8.682720    
   1.180000       8.096539    
   1.200000       7.527556    
   1.220000       6.978162    
   1.240000       6.450312    
   1.260000       5.945548    
   1.280000       5.465023    
   1.300000       5.009529    
   1.320000       4.579529    
   1.340000       4.175200    
   1.360000       3.796465    
   1.380000       3.443027    
   1.400000       3.114391    
   1.420000       2.809891    
   1.440000       2.528715    
   1.460000       2.269940    
   1.480000       2.032559    
   1.500000       1.815507    
   1.520000       1.617674    
   1.540000       1.437920    
   1.560000       1.275086    
   1.580000       1.128015    
   1.600000      0.9955686    
   1.620000      0.8766400    
   1.640000      0.7701584    
   1.660000      0.6750902    
   1.680000      0.5904430    
   1.700000      0.5152728    
   1.720000      0.4486914    
   1.740000      0.3898709    
   1.760000      0.3380416    
   1.780000      0.2924867    
   1.800000      0.2525395    
   1.820000      0.2175847    
   1.840000      0.1870612    
   1.860000      0.1604632    
   1.880000      0.1373360    
   1.900000      0.1172695    
   1.920000      9.9891357E-02
   1.940000      8.4865168E-02
   1.960000      7.1890801E-02
   1.980000      6.0705431E-02
   2.000000      5.1081322E-02
   2.020000      4.2819872E-02
   2.040000      3.5744581E-02
   2.060000      2.9696586E-02
   2.080000      2.4534436E-02
   2.100000      2.0136453E-02
   2.120000      1.6401751E-02
   2.140000      1.3247049E-02
   2.160000      1.0599998E-02
   2.180000      8.3929459E-03
   2.200000      6.5613016E-03
   2.220000      5.0469772E-03
   2.240000      3.8031025E-03
   2.260000      2.7949293E-03
   2.280000      1.9950334E-03
   2.300000      1.3761315E-03
   2.320000      9.0731872E-04
   2.340000      5.5680692E-04
   2.360000      2.9849663E-04
   2.380000      1.1610253E-04
   2.400000      6.1772482E-07
   2.420000     -5.6992758E-05
   2.440000     -7.1369315E-05
   2.460000     -6.1407067E-05
   2.480000     -4.3030286E-05
   2.500000     -2.2666147E-05
   2.520000      2.4183898E-06
   2.540000      3.6912363E-05
   2.560000      7.9707104E-05
   2.580000      1.2254658E-04
   2.600000      1.5629480E-04
   2.620000      1.7911805E-04
   2.640000      1.9909343E-04
   2.660000      2.2872053E-04
   2.680000      2.7600158E-04
   2.700000      3.3970817E-04
   2.720000      4.1263984E-04
   2.740000      4.8966514E-04
   2.760000      5.7337584E-04
   2.780000      6.7257753E-04
   2.800000      7.9517171E-04
   2.820000      9.4160880E-04
   2.840000      1.1042182E-03
   2.860000      1.2725178E-03
   2.880000      1.4397597E-03
   2.900000      1.6054121E-03
   2.920000      1.7720127E-03
   2.940000      1.9394163E-03
   2.960000      2.1012172E-03
   2.980000      2.2460392E-03
   3.000000      2.3624960E-03
   3.020000      2.4440007E-03
   3.040000      2.4899940E-03
   3.060000      2.5029862E-03
   3.080000      2.4838836E-03
   3.100000      2.4292772E-03
   3.120000      2.3328597E-03
   3.140000      2.1900029E-03
   3.160000      2.0019903E-03
   3.180000      1.7764708E-03
   3.200000      1.5235549E-03
   3.220000      1.2505566E-03
   3.240000      9.5971581E-04
   3.260000      6.5093063E-04
   3.280000      3.2721652E-04
   3.300000     -2.0099678E-06
   3.320000     -3.2311800E-04
   3.340000     -6.2446017E-04
   3.360000     -9.0134965E-04
   3.380000     -1.1553729E-03
   3.400000     -1.3885258E-03
   3.420000     -1.5974052E-03
   3.440000     -1.7728350E-03
   3.460000     -1.9055064E-03
   3.480000     -1.9927328E-03
   3.500000     -2.0403042E-03
   3.520000     -2.0577672E-03
   3.540000     -2.0513353E-03
   3.560000     -2.0206890E-03
   3.580000     -1.9622981E-03
   3.600000     -1.8760059E-03
   3.620000     -1.7687986E-03
   3.640000     -1.6523930E-03
   3.660000     -1.5368527E-03
   3.680000     -1.4258150E-03
   3.700000     -1.3172233E-03
   3.720000     -1.2085056E-03
   3.740000     -1.1014390E-03
   3.760000     -1.0025395E-03
   3.780000     -9.1886241E-04
   3.800000     -8.5289706E-04
   3.820000     -8.0073415E-04
   3.840000     -7.5481180E-04
   3.860000     -7.0890697E-04
   3.880000     -6.6148327E-04
   3.900000     -6.1497599E-04
   3.920000     -5.7175854E-04
   3.940000     -5.3002633E-04
   3.960000     -4.8291503E-04
   3.980000     -4.2178764E-04
   4.000000     -3.4141573E-04
   4.020000     -2.4308986E-04
   4.040000     -1.3300857E-04
   4.060000     -1.6942471E-05
   4.080000      1.0458077E-04
   4.100000      2.3633403E-04
   4.120000      3.8319238E-04
   4.140000      5.4381421E-04
   4.160000      7.0877827E-04
   4.180000      8.6528104E-04
   4.200000      1.0047571E-03
   4.220000      1.1268491E-03
   4.240000      1.2360187E-03
   4.260000      1.3335889E-03
   4.280000      1.4123770E-03
   4.300000      1.4591152E-03
   4.320000      1.4629947E-03
   4.340000      1.4230091E-03
   4.360000      1.3475762E-03
   4.380000      1.2466810E-03
   4.400000      1.1234727E-03
   4.420000      9.7277242E-04
   4.440000      7.8775996E-04
   4.460000      5.6877820E-04
   4.480000      3.2633982E-04
   4.500000      7.5667907E-05
   4.520000     -1.7235584E-04
   4.540000     -4.1589697E-04
   4.560000     -6.5862807E-04
   4.580000     -9.0141036E-04
   4.600000     -1.1367553E-03
   4.620000     -1.3509571E-03
   4.640000     -1.5319438E-03
   4.660000     -1.6760152E-03
   4.680000     -1.7878418E-03
   4.700000     -1.8740958E-03
   4.720000     -1.9364661E-03
   4.740000     -1.9700299E-03
   4.760000     -1.9680760E-03
   4.780000     -1.9289298E-03
   4.800000     -1.8588410E-03
   4.820000     -1.7686193E-03
   4.840000     -1.6670921E-03
   4.860000     -1.5569694E-03
   4.880000     -1.4363488E-03
   4.900000     -1.3041329E-03
   4.920000     -1.1643887E-03
   4.940000     -1.0258516E-03
   4.960000     -8.9713559E-04
   4.980000     -7.8188407E-04
   5.000000     -6.7794014E-04
   5.020000     -5.8096251E-04
   5.040000     -4.8908306E-04
   5.060000     -4.0453658E-04
   5.080000     -3.3109993E-04
   5.100000     -2.6991524E-04
   5.120000     -2.1751439E-04
   5.140000     -1.6767091E-04
   5.160000     -1.1524669E-04
   5.180000     -5.8616504E-05
   5.200000      1.1987975E-06
   5.220000      6.3512423E-05
   5.240000      1.3017045E-04
   5.260000      2.0507567E-04
   5.280000      2.9168904E-04
   5.300000      3.9082719E-04
   5.320000      5.0050614E-04
   5.340000      6.1758159E-04
   5.360000      7.3947175E-04
   5.380000      8.6451205E-04
   5.400000      9.9094992E-04
   5.420000      1.1157542E-03
   5.440000      1.2343526E-03
   5.460000      1.3414446E-03
   5.480000      1.4322037E-03
   5.500000      1.5030860E-03
   5.520000      1.5519198E-03
   5.540000      1.5774135E-03
   5.560000      1.5784131E-03
   5.580000      1.5533119E-03
   5.600000      1.5000284E-03
   5.620000      1.4167796E-03
   5.640000      1.3033432E-03
   5.660000      1.1619395E-03
   5.680000      9.9689490E-04
   5.700000      8.1311486E-04
   5.720000      6.1448495E-04
   5.740000      4.0356655E-04
   5.760000      1.8292526E-04
   5.780000     -4.3086988E-05
   5.800000     -2.6784418E-04
   5.820000     -4.8394932E-04
   5.840000     -6.8560609E-04
   5.860000     -8.6984719E-04
   5.880000     -1.0355717E-03
   5.900000     -1.1813368E-03
   5.920000     -1.3040182E-03
   5.940000     -1.3996467E-03
   5.960000     -1.4656804E-03
   5.980000     -1.5025997E-03
   6.000000     -1.5133383E-03
   6.020000     -1.5010954E-03
   6.040000     -1.4675814E-03
   6.060000     -1.4132969E-03
   6.080000     -1.3394704E-03
   6.100000     -1.2496803E-03
   6.120000     -1.1494879E-03
   6.140000     -1.0443070E-03
   6.160000     -9.3741860E-04
   6.180000     -8.2988956E-04
   6.200000     -7.2234141E-04
   6.220000     -6.1677379E-04
   6.240000     -5.1663758E-04
   6.260000     -4.2505900E-04
   6.280000     -3.4290046E-04
   6.300000     -2.6849957E-04
   6.320000     -1.9934047E-04
   6.340000     -1.3410124E-04
   6.360000     -7.3212323E-05
   6.380000     -1.7502955E-05
   6.400000      3.3696659E-05
   6.420000      8.3181803E-05
   6.440000      1.3466900E-04
   6.460000      1.9090259E-04
   6.480000      2.5274282E-04
   6.500000      3.1984650E-04
   6.520000      3.9202152E-04
   6.540000      4.6982546E-04
   6.560000      5.5388926E-04
   6.580000      6.4376835E-04
   6.600000      7.3753169E-04
   6.620000      8.3246356E-04
   6.640000      9.2611107E-04
   6.660000      1.0166374E-03
   6.680000      1.1022347E-03
   6.700000      1.1803342E-03
   6.720000      1.2475109E-03
   6.740000      1.3002187E-03
   6.760000      1.3356786E-03
   6.780000      1.3521753E-03
   6.800000      1.3486837E-03
   6.820000      1.3243686E-03
   6.840000      1.2784634E-03
   6.860000      1.2105189E-03
   6.880000      1.1206664E-03
   6.900000      1.0096995E-03
   6.920000      8.7912235E-04
   6.940000      7.3130603E-04
   6.960000      5.6955527E-04
   6.980000      3.9773437E-04
   7.000000      2.1951184E-04
   7.020000      3.7863949E-05
   7.040000     -1.4455324E-04
   7.060000     -3.2439659E-04
   7.080000     -4.9708190E-04
   7.100000     -6.5757387E-04
   7.120000     -8.0210535E-04
   7.140000     -9.2925323E-04
   7.160000     -1.0391474E-03
   7.180000     -1.1313725E-03
   7.200000     -1.2036269E-03
   7.220000     -1.2527208E-03
   7.240000     -1.2772472E-03
   7.260000     -1.2793667E-03
   7.280000     -1.2637131E-03
   7.300000     -1.2341308E-03
   7.320000     -1.1912507E-03
   7.340000     -1.1333624E-03
   7.360000     -1.0599303E-03
   7.380000     -9.7439374E-04
   7.400000     -8.8334701E-04
   7.420000     -7.9259713E-04
   7.440000     -7.0370460E-04
   7.460000     -6.1432412E-04
   7.480000     -5.2209763E-04
   7.500000     -4.2840408E-04
   7.520000     -3.3832112E-04
   7.540000     -2.5674477E-04
   7.560000     -1.8431287E-04
   7.580000     -1.1700808E-04
   7.600000     -4.9839287E-05
   7.620000      1.8842982E-05
   7.640000      8.6381435E-05
   7.660000      1.4896083E-04
   7.680000      2.0578569E-04
   7.700000      2.6036520E-04
   7.720000      3.1782410E-04
   7.740000      3.8085872E-04
   7.760000      4.4803153E-04
   7.780000      5.1571493E-04
   7.800000      5.8158796E-04
   7.820000      6.4637233E-04
   7.840000      7.1239984E-04
   7.860000      7.8062061E-04
   7.880000      8.4892230E-04
   7.900000      9.1317034E-04
   7.920000      9.6980057E-04
   7.940000      1.0175429E-03
   7.960000      1.0569035E-03
   7.980000      1.0881573E-03
   8.000000      1.1097979E-03
   8.020000      1.1187466E-03
   8.040000      1.1119611E-03
   8.060000      1.0879916E-03
   8.080000      1.0473004E-03
   8.100000      9.9133328E-04
   8.120000      9.2126935E-04
   8.140000      8.3742727E-04
   8.160000      7.3963241E-04
   8.180000      6.2813534E-04
   8.200000      5.0438620E-04
   8.220000      3.7116787E-04
   8.240000      2.3202276E-04
   8.260000      9.0313311E-05
   8.280000     -5.1523002E-05
   8.300000     -1.9204765E-04
   8.320000     -3.3014530E-04
   8.340000     -4.6404812E-04
   8.360000     -5.9080258E-04
   8.380000     -7.0668408E-04
   8.400000     -8.0838439E-04
   8.420000     -8.9416472E-04
   8.440000     -9.6410798E-04
   8.460000     -1.0192374E-03
   8.480000     -1.0601395E-03
   8.500000     -1.0861497E-03
   8.520000     -1.0957682E-03
   8.540000     -1.0880303E-03
   8.560000     -1.0637848E-03
   8.580000     -1.0258360E-03
   8.600000     -9.7773084E-04
   8.620000     -9.2202774E-04
   8.640000     -8.5934566E-04
   8.660000     -7.8896480E-04
   8.680000     -7.1055087E-04
   8.700000     -6.2563329E-04
   8.720000     -5.3757313E-04
   8.740000     -4.4994152E-04
   8.760000     -3.6458229E-04
   8.780000     -2.8100426E-04
   8.800000     -1.9769937E-04
   8.820000     -1.1430311E-04
   8.840000     -3.2665255E-05
   8.860000      4.4256536E-05
   8.880000      1.1482945E-04
   8.900000      1.8032397E-04
   8.920000      2.4404563E-04
   8.940000      3.0857298E-04
   8.960000      3.7348011E-04
   8.980000      4.3567049E-04
   9.000000      4.9217523E-04
   9.020000      5.4295524E-04
   9.040000      5.9108320E-04
   9.060000      6.3997559E-04
   9.080000      6.9009361E-04
   9.100000      7.3816237E-04
   9.120000      7.7974558E-04
   9.140000      8.1290893E-04
   9.160000      8.3959161E-04
   9.180000      8.6333934E-04
   9.200000      8.8542508E-04
   9.220000      9.0296351E-04
   9.240000      9.1085630E-04
   9.260000      9.0585684E-04
   9.280000      8.8902499E-04
   9.300000      8.6428551E-04
   9.320000      8.3441567E-04
   9.340000      7.9819281E-04
   9.360000      7.5136480E-04
   9.380000      6.9054542E-04
   9.400000      6.1642216E-04
   9.420000      5.3333776E-04
   9.440000      4.4570834E-04
   9.460000      3.5466198E-04
   9.480000      2.5799917E-04
   9.500000      1.5341141E-04
   9.520000      4.1873045E-05
   9.540000     -7.1956732E-05
   9.560000     -1.8262626E-04
   9.580000     -2.8734904E-04
   9.600000     -3.8689401E-04
   9.620000     -4.8326279E-04
   9.640000     -5.7645614E-04
   9.660000     -6.6331780E-04
   9.680000     -7.3938037E-04
   9.700000     -8.0188218E-04
   9.720000     -8.5121283E-04
   9.740000     -8.8964845E-04
   9.760000     -9.1870391E-04
   9.780000     -9.3749579E-04
   9.800000     -9.4339903E-04
   9.820000     -9.3421567E-04
   9.840000     -9.0993982E-04
   9.860000     -8.7280577E-04
   9.880000     -8.2585175E-04
   9.900000     -7.7129609E-04
   9.920000     -7.0987915E-04
   9.940000     -6.4138981E-04
   9.960000     -5.6576397E-04
   9.980000     -4.8394181E-04
   10.00000     -3.9799316E-04
   10.02000     -3.1048883E-04
   10.04000     -2.2349824E-04
   10.06000     -1.3783455E-04
   10.08000     -5.3121388E-05
   10.10000      3.1218609E-05
   10.12000      1.1468633E-04
   10.14000      1.9519246E-04
   10.16000      2.6993232E-04
   10.18000      3.3714232E-04
   10.20000      3.9731810E-04
   10.22000      4.5272303E-04
   10.24000      5.0541147E-04
   10.26000      5.5537350E-04
   10.28000      6.0045772E-04
   10.30000      6.3823606E-04
   10.32000      6.6821504E-04
   10.34000      6.9239043E-04
   10.36000      7.1357278E-04
   10.38000      7.3293090E-04
   10.40000      7.4896606E-04
   10.42000      7.5887708E-04
   10.44000      7.6111784E-04
   10.46000      7.5684616E-04
   10.48000      7.4894214E-04
   10.50000      7.3945464E-04
   10.52000      7.2774023E-04
   10.54000      7.1092672E-04
   10.56000      6.8626244E-04
   10.58000      6.5327378E-04
   10.60000      6.1388838E-04
   10.62000      5.7051366E-04
   10.64000      5.2382704E-04
   10.66000      4.7219920E-04
   10.68000      4.1318007E-04
   10.70000      3.4570886E-04
   10.72000      2.7118053E-04
   10.74000      1.9257057E-04
   10.76000      1.1245948E-04
   10.78000      3.1608768E-05
   10.80000     -5.0860024E-05
   10.82000     -1.3599831E-04
   10.84000     -2.2354517E-04
   10.86000     -3.1153898E-04
   10.88000     -3.9715855E-04
   10.90000     -4.7799421E-04
   10.92000     -5.5276300E-04
   10.94000     -6.2105316E-04
   10.96000     -6.8246381E-04
   10.98000     -7.3589833E-04
   11.00000     -7.7956496E-04
   11.02000     -8.1165967E-04
   11.04000     -8.3119672E-04
   11.06000     -8.3834957E-04
   11.08000     -8.3403115E-04
   11.10000     -8.1902154E-04
   11.12000     -7.9333066E-04
   11.14000     -7.5634202E-04
   11.16000     -7.0767035E-04
   11.18000     -6.4803398E-04
   11.20000     -5.7935755E-04
   11.22000     -5.0394022E-04
   11.24000     -4.2337732E-04
   11.26000     -3.3823500E-04
   11.28000     -2.4885155E-04
   11.30000     -1.5656813E-04
   11.32000     -6.4158419E-05
   11.34000      2.5147798E-05
   11.36000      1.0933616E-04
   11.38000      1.8847111E-04
   11.40000      2.6383676E-04
   11.42000      3.3599520E-04
   11.44000      4.0350066E-04
   11.46000      4.6352998E-04
   11.48000      5.1395851E-04
   11.50000      5.5500743E-04
   11.52000      5.8889424E-04
   11.54000      6.1774335E-04
   11.56000      6.4167485E-04
   11.58000      6.5888412E-04
   11.60000      6.6767540E-04
   11.62000      6.6854927E-04
   11.64000      6.6434522E-04
   11.66000      6.5824529E-04
   11.68000      6.5145612E-04
   11.70000      6.4269273E-04
   11.72000      6.2988850E-04
   11.74000      6.1247294E-04
   11.76000      5.9206068E-04
   11.78000      5.7093857E-04
   11.80000      5.4982654E-04
   11.82000      5.2705343E-04
   11.84000      4.9992919E-04
   11.86000      4.6704520E-04
   11.88000      4.2939949E-04
   11.90000      3.8936088E-04
   11.92000      3.4844680E-04
   11.94000      3.0589759E-04
   11.96000      2.5924231E-04
   11.98000      2.0628313E-04
   12.00000      1.4677992E-04
   12.02000      8.2512815E-05
   12.04000      1.5845362E-05
   12.06000     -5.1903495E-05
   12.08000     -1.2097101E-04
   12.10000     -1.9226482E-04
   12.12000     -2.6590744E-04
   12.14000     -3.4037701E-04
   12.16000     -4.1284913E-04
   12.18000     -4.8041888E-04
   12.20000     -5.4129068E-04
   12.22000     -5.9511565E-04
   12.24000     -6.4230111E-04
   12.26000     -6.8284449E-04
   12.28000     -7.1556703E-04
   12.30000     -7.3832466E-04
   12.32000     -7.4904319E-04
   12.34000     -7.4680481E-04
   12.36000     -7.3216495E-04
   12.38000     -7.0649234E-04
   12.40000     -6.7090162E-04
   12.42000     -6.2566361E-04
   12.44000     -5.7054940E-04
   12.46000     -5.0576014E-04
   12.48000     -4.3261403E-04
   12.50000     -3.5340927E-04
   12.52000     -2.7061504E-04
   12.54000     -1.8609170E-04
   12.56000     -1.0094384E-04
   12.58000     -1.6005437E-05
   12.60000      6.7574721E-05
   12.62000      1.4818388E-04
   12.64000      2.2410801E-04
   12.66000      2.9402369E-04
   12.68000      3.5718372E-04
   12.70000      4.1319928E-04
   12.72000      4.6169484E-04
   12.74000      5.0218822E-04
   12.76000      5.3429778E-04
   12.78000      5.5806723E-04
   12.80000      5.7409611E-04
   12.82000      5.8333861E-04
   12.84000      5.8672007E-04
   12.86000      5.8487913E-04
   12.88000      5.7824329E-04
   12.90000      5.6735944E-04
   12.92000      5.5316091E-04
   12.94000      5.3686695E-04
   12.96000      5.1951781E-04
   12.98000      5.0150731E-04
   13.00000      4.8255129E-04
   13.02000      4.6218923E-04
   13.04000      4.4041034E-04
   13.06000      4.1780600E-04
   13.08000      3.9503211E-04
   13.10000      3.7203068E-04
   13.12000      3.4777587E-04
   13.14000      3.2089031E-04
   13.16000      2.9064267E-04
   13.18000      2.5738715E-04
   13.20000      2.2195777E-04
   13.22000      1.8453419E-04
   13.24000      1.4408825E-04
   13.26000      9.9050434E-05
   13.28000      4.8673839E-05
   13.30000     -6.1678879E-06
   13.32000     -6.3550229E-05
   13.34000     -1.2194715E-04
   13.36000     -1.8119028E-04
   13.38000     -2.4199234E-04
   13.40000     -3.0445907E-04
   13.42000     -3.6701158E-04
   13.44000     -4.2678069E-04
   13.46000     -4.8114185E-04
   13.48000     -5.2898249E-04
   13.50000     -5.7057012E-04
   13.52000     -6.0623203E-04
   13.54000     -6.3514867E-04
   13.56000     -6.5537170E-04
   13.58000     -6.6495762E-04
   13.60000     -6.6309341E-04
   13.62000     -6.5023336E-04
   13.64000     -6.2731979E-04
   13.66000     -5.9499743E-04
   13.68000     -5.5355922E-04
   13.70000     -5.0347386E-04
   13.72000     -4.4575657E-04
   13.74000     -3.8174191E-04
   13.76000     -3.1259458E-04
   13.78000     -2.3922302E-04
   13.80000     -1.6275710E-04
   13.82000     -8.5010404E-05
   13.84000     -8.2495353E-06
   13.86000      6.5671433E-05
   13.88000      1.3596893E-04
   13.90000      2.0261570E-04
   13.92000      2.6525377E-04
   13.94000      3.2241395E-04
   13.96000      3.7193965E-04
   13.98000      4.1235142E-04
   14.00000      4.4388499E-04
   14.02000      4.6815080E-04
   14.04000      4.8666642E-04
   14.06000      4.9963937E-04
   14.08000      5.0617626E-04
   14.10000      5.0571153E-04
   14.12000      4.9922784E-04
   14.14000      4.8901170E-04
   14.16000      4.7711236E-04
   14.18000      4.6396253E-04
   14.20000      4.4849142E-04
   14.22000      4.2962591E-04
   14.24000      4.0773459E-04
   14.26000      3.8463922E-04
   14.28000      3.6222002E-04
   14.30000      3.4098618E-04
   14.32000      3.1995948E-04
   14.34000      2.9788248E-04
   14.36000      2.7447360E-04
   14.38000      2.5048037E-04
   14.40000      2.2655909E-04
   14.42000      2.0220810E-04
   14.44000      1.7588979E-04
   14.46000      1.4621911E-04
   14.48000      1.1299256E-04
   14.50000      7.7018783E-05
   14.52000      3.8985359E-05
   14.54000     -1.3878526E-06
   14.56000     -4.4969067E-05
   14.58000     -9.1990987E-05
   14.60000     -1.4130700E-04
   14.62000     -1.9099494E-04
   14.64000     -2.3976197E-04
   14.66000     -2.8770333E-04
   14.68000     -3.3556300E-04
   14.70000     -3.8317867E-04
   14.72000     -4.2869410E-04
   14.74000     -4.6941661E-04
   14.76000     -5.0354609E-04
   14.78000     -5.3107610E-04
   14.80000     -5.5295101E-04
   14.82000     -5.6931225E-04
   14.84000     -5.7862070E-04
   14.86000     -5.7860377E-04
   14.88000     -5.6814851E-04
   14.90000     -5.4827298E-04
   14.92000     -5.2118371E-04
   14.94000     -4.8831408E-04
   14.96000     -4.4926547E-04
   14.98000     -4.0269920E-04
   15.00000     -3.4830385E-04
   15.02000     -2.8789940E-04
   15.04000     -2.2458431E-04
   15.06000     -1.6074955E-04
   15.08000     -9.6877622E-05
   15.10000     -3.2253523E-05
   15.12000      3.3160504E-05
   15.14000      9.7548123E-05
   15.16000      1.5791199E-04
   15.18000      2.1194805E-04
   15.20000      2.5934612E-04
   15.22000      3.0134205E-04
   15.24000      3.3902843E-04
   15.26000      3.7205193E-04
   15.28000      3.9885918E-04
   15.30000      4.1813622E-04
   15.32000      4.3000758E-04
   15.34000      4.3589677E-04
   15.36000      4.3728133E-04
   15.38000      4.3458759E-04
   15.40000      4.2724729E-04
   15.42000      4.1478054E-04
   15.44000      3.9782061E-04
   15.46000      3.7810396E-04
   15.48000      3.5744501E-04
   15.50000      3.3663411E-04
   15.52000      3.1522644E-04
   15.54000      2.9236401E-04
   15.56000      2.6786534E-04
   15.58000      2.4261653E-04
   15.60000      2.1793424E-04
   15.62000      1.9447047E-04
   15.64000      1.7162369E-04
   15.66000      1.4799222E-04
   15.68000      1.2251773E-04
   15.70000      9.5358242E-05
   15.72000      6.7722744E-05
   15.74000      4.0759918E-05
   15.76000      1.4421893E-05
   15.78000     -1.2696333E-05
   15.80000     -4.2329368E-05
   15.82000     -7.5137825E-05
   15.84000     -1.1011447E-04
   15.86000     -1.4533541E-04
   15.88000     -1.7943645E-04
   15.90000     -2.1254303E-04
   15.92000     -2.4583976E-04
   15.94000     -2.8015787E-04
   15.96000     -3.1482975E-04
   15.98000     -3.4781903E-04
   16.00000     -3.7699562E-04
   16.02000     -4.0142189E-04
   16.04000     -4.2154948E-04
   16.06000     -4.3823486E-04
   16.08000     -4.5151773E-04
   16.10000     -4.6024050E-04
   16.12000     -4.6275722E-04
   16.14000     -4.5801199E-04
   16.16000     -4.4603596E-04
   16.18000     -4.2754953E-04
   16.20000     -4.0318130E-04
   16.22000     -3.7306079E-04
   16.24000     -3.3706814E-04
   16.26000     -2.9537964E-04
   16.28000     -2.4874887E-04
   16.30000     -1.9831905E-04
   16.32000     -1.4522798E-04
   16.34000     -9.0387461E-05
   16.36000     -3.4552002E-05
   16.38000      2.1508220E-05
   16.40000      7.6942793E-05
   16.42000      1.3087470E-04
   16.44000      1.8243714E-04
   16.46000      2.3073326E-04
   16.48000      2.7482188E-04
   16.50000      3.1384348E-04
   16.52000      3.4722505E-04
   16.54000      3.7475457E-04
   16.56000      3.9640951E-04
   16.58000      4.1208885E-04
   16.60000      4.2153904E-04
   16.62000      4.2459529E-04
   16.64000      4.2152108E-04
   16.66000      4.1308411E-04
   16.68000      4.0023387E-04
   16.70000      3.8364431E-04
   16.72000      3.6354497E-04
   16.74000      3.4000713E-04
   16.76000      3.1341607E-04
   16.78000      2.8467263E-04
   16.80000      2.5492269E-04
   16.82000      2.2505857E-04
   16.84000      1.9544044E-04
   16.86000      1.6605991E-04
   16.88000      1.3694460E-04
   16.90000      1.0840151E-04
   16.92000      8.0889178E-05